
     Program PROJWFC v.6.5 starts on 16Apr2020 at 21:41:58 

     This program is part of the open-source Quantum ESPRESSO suite
     for quantum simulation of materials; please cite
         "P. Giannozzi et al., J. Phys.:Condens. Matter 21 395502 (2009);
         "P. Giannozzi et al., J. Phys.:Condens. Matter 29 465901 (2017);
          URL http://www.quantum-espresso.org", 
     in publications or presentations arising from this work. More details at
     http://www.quantum-espresso.org/quote

     Parallel version (MPI), running on     1 processors

     MPI processes distributed on     1 nodes

     Reading xml data from directory:

     /wrk/kfg/julia_data/MgS/dimer.in_vnscf_coords_7/qe.nscf.save/

     IMPORTANT: XC functional enforced from input :
     Exchange-correlation= PBESOL
                           (   1   4  10   8   0   0   0)
     Any further DFT definition will be discarded
     Please, verify this is what you really want

               file mg.pbesol.UPF: wavefunction(s)  3P renormalized
 
     G-vector sticks info
     --------------------
     sticks:   dense  smooth     PW     G-vecs:    dense   smooth      PW
     Sum        3909    2801    777               261761   159925   23349
 

     negative rho (up, down):  3.808E-05 0.000E+00

     Gaussian broadening (read from file): ngauss,degauss=   0    0.010000


     Calling projwave .... 
 
  Problem Sizes 
  natomwfc =           12
  nbnd     =           33
  nkstot   =           64
  npwx     =        20028
  nkb      =           37
 

     Atomic states used for projection
     (read from pseudopotential files):

     state #   1: atom   1 (Mg ), wfc  1 (l=0 m= 1)
     state #   2: atom   1 (Mg ), wfc  2 (l=1 m= 1)
     state #   3: atom   1 (Mg ), wfc  2 (l=1 m= 2)
     state #   4: atom   1 (Mg ), wfc  2 (l=1 m= 3)
     state #   5: atom   1 (Mg ), wfc  3 (l=0 m= 1)
     state #   6: atom   1 (Mg ), wfc  4 (l=1 m= 1)
     state #   7: atom   1 (Mg ), wfc  4 (l=1 m= 2)
     state #   8: atom   1 (Mg ), wfc  4 (l=1 m= 3)
     state #   9: atom   2 (S  ), wfc  1 (l=0 m= 1)
     state #  10: atom   2 (S  ), wfc  2 (l=1 m= 1)
     state #  11: atom   2 (S  ), wfc  2 (l=1 m= 2)
     state #  12: atom   2 (S  ), wfc  2 (l=1 m= 3)

 k =   0.0000000000  0.0000000000  0.0000000000
==== e(   1) =   -80.59617 eV ==== 
     psi = 0.998*[#   1]+0.002*[#  10]
    |psi|^2 = 1.000
==== e(   2) =   -47.55691 eV ==== 
     psi = 0.985*[#   4]+0.010*[#   8]+0.005*[#   3]
    |psi|^2 = 1.000
==== e(   3) =   -47.55691 eV ==== 
     psi = 0.985*[#   3]+0.010*[#   7]+0.005*[#   4]
    |psi|^2 = 1.000
==== e(   4) =   -47.51831 eV ==== 
     psi = 0.986*[#   2]+0.011*[#   6]+0.002*[#  10]
    |psi|^2 = 1.000
==== e(   5) =   -14.12239 eV ==== 
     psi = 0.882*[#   9]+0.063*[#   6]+0.051*[#   5]+0.002*[#  10]
    |psi|^2 = 0.998
==== e(   6) =    -5.86075 eV ==== 
     psi = 0.572*[#  10]+0.383*[#   5]+0.036*[#   9]
    |psi|^2 = 0.992
==== e(   7) =    -4.03759 eV ==== 
     psi = 0.653*[#  12]+0.248*[#  11]+0.066*[#   8]+0.025*[#   7]
    |psi|^2 = 0.992
==== e(   8) =    -4.03759 eV ==== 
     psi = 0.653*[#  11]+0.248*[#  12]+0.066*[#   7]+0.025*[#   8]
    |psi|^2 = 0.992
==== e(   9) =    -3.72858 eV ==== 
     psi = 0.426*[#   5]+0.285*[#   6]+0.266*[#  10]+0.001*[#   2]
    |psi|^2 = 0.979
==== e(  10) =    -0.55964 eV ==== 
     psi = 0.586*[#   7]+0.156*[#   8]+0.061*[#  11]+0.016*[#  12]+0.007*[#   3]
          +0.002*[#   4]
    |psi|^2 = 0.827
==== e(  11) =    -0.55964 eV ==== 
     psi = 0.586*[#   8]+0.156*[#   7]+0.061*[#  12]+0.016*[#  11]+0.007*[#   4]
          +0.002*[#   3]
    |psi|^2 = 0.827
==== e(  12) =     0.20498 eV ==== 
     psi = 0.086*[#   6]+0.007*[#   9]+0.006*[#   5]+0.002*[#  10]+0.001*[#   2]
          
    |psi|^2 = 0.102
==== e(  13) =     0.38841 eV ==== 
     psi = 0.163*[#   6]+0.069*[#   5]+0.054*[#  10]+0.022*[#   9]+0.003*[#   2]
          
    |psi|^2 = 0.312
==== e(  14) =     1.39534 eV ==== 
     psi = 0.014*[#   6]+0.005*[#  10]+0.005*[#   5]+0.003*[#   9]
    |psi|^2 = 0.028
==== e(  15) =     1.42060 eV ==== 
 
    |psi|^2 = 0.000
==== e(  16) =     2.63951 eV ==== 
     psi = 0.096*[#   6]+0.035*[#  10]+0.019*[#   5]+0.013*[#   9]+0.002*[#   2]
          
    |psi|^2 = 0.166
==== e(  17) =     2.71012 eV ==== 
     psi = 0.029*[#   7]+0.019*[#   8]+0.004*[#  11]+0.003*[#  12]
    |psi|^2 = 0.056
==== e(  18) =     2.71012 eV ==== 
     psi = 0.029*[#   8]+0.019*[#   7]+0.004*[#  12]+0.003*[#  11]
    |psi|^2 = 0.056
==== e(  19) =     3.05370 eV ==== 
 
    |psi|^2 = 0.000
==== e(  20) =     3.35543 eV ==== 
 
    |psi|^2 = 0.000
==== e(  21) =     3.35818 eV ==== 
     psi = 0.041*[#   6]+0.005*[#   5]+0.004*[#   9]+0.004*[#  10]
    |psi|^2 = 0.056
==== e(  22) =     3.67161 eV ==== 
     psi = 0.001*[#  11]+0.001*[#  12]
    |psi|^2 = 0.002
==== e(  23) =     3.67161 eV ==== 
     psi = 0.001*[#  11]+0.001*[#  12]
    |psi|^2 = 0.002
==== e(  24) =     3.68856 eV ==== 
 
    |psi|^2 = 0.000
==== e(  25) =     4.27798 eV ==== 
 
    |psi|^2 = 0.001
==== e(  26) =     4.28627 eV ==== 
     psi = 0.011*[#   7]+0.008*[#   8]+0.002*[#  11]+0.001*[#  12]
    |psi|^2 = 0.022
==== e(  27) =     4.28627 eV ==== 
     psi = 0.011*[#   8]+0.008*[#   7]+0.002*[#  12]+0.001*[#  11]
    |psi|^2 = 0.022
==== e(  28) =     4.89318 eV ==== 
     psi = 0.018*[#   6]+0.007*[#   5]+0.005*[#  10]+0.002*[#   9]
    |psi|^2 = 0.033
==== e(  29) =     5.16451 eV ==== 
     psi = 0.007*[#   8]+0.003*[#  12]+0.001*[#   7]
    |psi|^2 = 0.012
==== e(  30) =     5.16451 eV ==== 
     psi = 0.007*[#   7]+0.003*[#  11]+0.001*[#   8]
    |psi|^2 = 0.012
==== e(  31) =     5.19582 eV ==== 
     psi = 0.003*[#   6]+0.002*[#   5]
    |psi|^2 = 0.006
==== e(  32) =     5.28142 eV ==== 
 
    |psi|^2 = 0.000
==== e(  33) =     5.97570 eV ==== 
     psi = 0.049*[#   6]+0.015*[#  10]+0.007*[#   9]+0.006*[#   5]
    |psi|^2 = 0.078

 k =   0.0000000000  0.0000000000  0.1750000000
==== e(   1) =   -80.59617 eV ==== 
     psi = 0.998*[#   1]+0.002*[#  10]
    |psi|^2 = 1.000
==== e(   2) =   -47.55691 eV ==== 
     psi = 0.989*[#   4]+0.010*[#   8]
    |psi|^2 = 1.000
==== e(   3) =   -47.55691 eV ==== 
     psi = 0.989*[#   3]+0.010*[#   7]
    |psi|^2 = 1.000
==== e(   4) =   -47.51831 eV ==== 
     psi = 0.986*[#   2]+0.011*[#   6]+0.002*[#  10]
    |psi|^2 = 1.000
==== e(   5) =   -14.12239 eV ==== 
     psi = 0.882*[#   9]+0.063*[#   6]+0.051*[#   5]+0.002*[#  10]
    |psi|^2 = 0.998
==== e(   6) =    -5.86182 eV ==== 
     psi = 0.572*[#  10]+0.383*[#   5]+0.036*[#   9]
    |psi|^2 = 0.992
==== e(   7) =    -4.03750 eV ==== 
     psi = 0.865*[#  12]+0.087*[#   8]+0.037*[#  11]+0.004*[#   7]
    |psi|^2 = 0.992
==== e(   8) =    -4.03750 eV ==== 
     psi = 0.865*[#  11]+0.087*[#   7]+0.037*[#  12]+0.004*[#   8]
    |psi|^2 = 0.992
==== e(   9) =    -3.72211 eV ==== 
     psi = 0.426*[#   5]+0.286*[#   6]+0.267*[#  10]+0.001*[#   2]
    |psi|^2 = 0.980
==== e(  10) =    -0.56252 eV ==== 
     psi = 0.382*[#   7]+0.359*[#   8]+0.039*[#  11]+0.037*[#  12]+0.004*[#   3]
          +0.004*[#   4]
    |psi|^2 = 0.826
==== e(  11) =    -0.56252 eV ==== 
     psi = 0.382*[#   8]+0.359*[#   7]+0.039*[#  12]+0.037*[#  11]+0.004*[#   4]
          +0.004*[#   3]
    |psi|^2 = 0.826
==== e(  12) =     0.11196 eV ==== 
     psi = 0.143*[#   6]+0.045*[#   5]+0.033*[#  10]+0.018*[#   9]+0.003*[#   2]
          
    |psi|^2 = 0.241
==== e(  13) =     0.36501 eV ==== 
     psi = 0.085*[#   6]+0.021*[#   5]+0.015*[#  10]+0.009*[#   9]+0.001*[#   2]
          
    |psi|^2 = 0.132
==== e(  14) =     1.43616 eV ==== 
 
    |psi|^2 = 0.000
==== e(  15) =     1.65233 eV ==== 
     psi = 0.040*[#   6]+0.016*[#  10]+0.016*[#   5]+0.006*[#   9]
    |psi|^2 = 0.079
==== e(  16) =     2.51807 eV ==== 
     psi = 0.072*[#   6]+0.023*[#  10]+0.015*[#   5]+0.010*[#   9]+0.001*[#   2]
          
    |psi|^2 = 0.122
==== e(  17) =     2.78367 eV ==== 
     psi = 0.037*[#   7]+0.013*[#   8]+0.006*[#  11]+0.002*[#  12]
    |psi|^2 = 0.060
==== e(  18) =     2.78367 eV ==== 
     psi = 0.037*[#   8]+0.013*[#   7]+0.006*[#  12]+0.002*[#  11]
    |psi|^2 = 0.060
==== e(  19) =     3.04237 eV ==== 
 
    |psi|^2 = 0.000
==== e(  20) =     3.06020 eV ==== 
 
    |psi|^2 = 0.000
==== e(  21) =     3.62642 eV ==== 
     psi = 0.040*[#   6]+0.008*[#   5]+0.008*[#  10]+0.004*[#   9]
    |psi|^2 = 0.062
==== e(  22) =     3.64162 eV ==== 
     psi = 0.003*[#   7]+0.003*[#   8]
    |psi|^2 = 0.009
==== e(  23) =     3.64162 eV ==== 
     psi = 0.003*[#   8]+0.003*[#   7]
    |psi|^2 = 0.009
==== e(  24) =     3.92769 eV ==== 
     psi = 0.028*[#   6]+0.005*[#   5]+0.004*[#   9]+0.003*[#  10]
    |psi|^2 = 0.040
==== e(  25) =     4.10825 eV ==== 
     psi = 0.008*[#   7]+0.002*[#   8]+0.002*[#  11]
    |psi|^2 = 0.013
==== e(  26) =     4.10825 eV ==== 
     psi = 0.008*[#   8]+0.002*[#   7]+0.002*[#  12]
    |psi|^2 = 0.013
==== e(  27) =     4.22553 eV ==== 
 
    |psi|^2 = 0.000
==== e(  28) =     4.57774 eV ==== 
     psi = 0.022*[#   6]+0.010*[#  10]+0.004*[#   9]+0.004*[#   5]
    |psi|^2 = 0.041
==== e(  29) =     5.11424 eV ==== 
 
    |psi|^2 = 0.000
==== e(  30) =     5.35401 eV ==== 
     psi = 0.017*[#   6]+0.006*[#  10]+0.002*[#   9]+0.001*[#   5]
    |psi|^2 = 0.027
==== e(  31) =     5.37967 eV ==== 
     psi = 0.004*[#   7]+0.002*[#  11]+0.001*[#   8]
    |psi|^2 = 0.007
==== e(  32) =     5.37967 eV ==== 
     psi = 0.004*[#   8]+0.002*[#  12]+0.001*[#   7]
    |psi|^2 = 0.007
==== e(  33) =     5.95033 eV ==== 
     psi = 0.005*[#   8]
    |psi|^2 = 0.006

 k =   0.0000000000  0.0000000000 -0.3500000000
==== e(   1) =   -80.59617 eV ==== 
     psi = 0.998*[#   1]+0.002*[#  10]
    |psi|^2 = 1.000
==== e(   2) =   -47.55691 eV ==== 
     psi = 0.729*[#   4]+0.260*[#   3]+0.008*[#   8]+0.003*[#   7]
    |psi|^2 = 1.000
==== e(   3) =   -47.55691 eV ==== 
     psi = 0.729*[#   3]+0.260*[#   4]+0.008*[#   7]+0.003*[#   8]
    |psi|^2 = 1.000
==== e(   4) =   -47.51831 eV ==== 
     psi = 0.986*[#   2]+0.011*[#   6]+0.002*[#  10]
    |psi|^2 = 1.000
==== e(   5) =   -14.12239 eV ==== 
     psi = 0.882*[#   9]+0.063*[#   6]+0.051*[#   5]+0.002*[#  10]
    |psi|^2 = 0.998
==== e(   6) =    -5.86289 eV ==== 
     psi = 0.572*[#  10]+0.383*[#   5]+0.036*[#   9]
    |psi|^2 = 0.992
==== e(   7) =    -4.03741 eV ==== 
     psi = 0.778*[#  11]+0.123*[#  12]+0.078*[#   7]+0.012*[#   8]
    |psi|^2 = 0.992
==== e(   8) =    -4.03741 eV ==== 
     psi = 0.778*[#  12]+0.123*[#  11]+0.078*[#   8]+0.012*[#   7]
    |psi|^2 = 0.992
==== e(   9) =    -3.71559 eV ==== 
     psi = 0.426*[#   5]+0.287*[#   6]+0.267*[#  10]+0.001*[#   2]
    |psi|^2 = 0.982
==== e(  10) =    -0.56539 eV ==== 
     psi = 0.451*[#   8]+0.290*[#   7]+0.046*[#  12]+0.030*[#  11]+0.005*[#   4]
          +0.003*[#   3]
    |psi|^2 = 0.825
==== e(  11) =    -0.56539 eV ==== 
     psi = 0.451*[#   7]+0.290*[#   8]+0.046*[#  11]+0.030*[#  12]+0.005*[#   3]
          +0.003*[#   4]
    |psi|^2 = 0.825
==== e(  12) =     0.02374 eV ==== 
     psi = 0.160*[#   6]+0.058*[#   5]+0.043*[#  10]+0.023*[#   9]+0.003*[#   2]
          
    |psi|^2 = 0.287
==== e(  13) =     0.36555 eV ==== 
     psi = 0.057*[#   6]+0.004*[#   5]+0.004*[#   9]
    |psi|^2 = 0.066
==== e(  14) =     1.45271 eV ==== 
 
    |psi|^2 = 0.000
==== e(  15) =     1.86119 eV ==== 
     psi = 0.072*[#   6]+0.030*[#  10]+0.024*[#   5]+0.009*[#   9]+0.002*[#   2]
          
    |psi|^2 = 0.137
==== e(  16) =     2.63476 eV ==== 
     psi = 0.018*[#   6]+0.009*[#   5]+0.003*[#  10]+0.002*[#   9]
    |psi|^2 = 0.033
==== e(  17) =     2.87796 eV ==== 
     psi = 0.049*[#   7]+0.010*[#  11]+0.006*[#   8]+0.001*[#  12]
    |psi|^2 = 0.067
==== e(  18) =     2.87796 eV ==== 
     psi = 0.049*[#   8]+0.010*[#  12]+0.006*[#   7]+0.001*[#  11]
    |psi|^2 = 0.067
==== e(  19) =     2.88436 eV ==== 
 
    |psi|^2 = 0.000
==== e(  20) =     3.06685 eV ==== 
 
    |psi|^2 = 0.000
==== e(  21) =     3.24422 eV ==== 
     psi = 0.060*[#   6]+0.015*[#  10]+0.011*[#   5]+0.010*[#   9]+0.001*[#   2]
          
    |psi|^2 = 0.097
==== e(  22) =     3.56287 eV ==== 
     psi = 0.008*[#   8]+0.006*[#   7]
    |psi|^2 = 0.015
==== e(  23) =     3.56287 eV ==== 
     psi = 0.008*[#   7]+0.006*[#   8]
    |psi|^2 = 0.015
==== e(  24) =     3.97360 eV ==== 
     psi = 0.036*[#   6]+0.004*[#   5]+0.004*[#  10]+0.003*[#   9]
    |psi|^2 = 0.048
==== e(  25) =     4.01093 eV ==== 
     psi = 0.002*[#  11]
    |psi|^2 = 0.002
==== e(  26) =     4.01093 eV ==== 
     psi = 0.002*[#  12]
    |psi|^2 = 0.002
==== e(  27) =     4.68035 eV ==== 
     psi = 0.027*[#   6]+0.014*[#  10]+0.005*[#   5]+0.004*[#   9]
    |psi|^2 = 0.051
==== e(  28) =     5.00227 eV ==== 
 
    |psi|^2 = 0.000
==== e(  29) =     5.00930 eV ==== 
 
    |psi|^2 = 0.000
==== e(  30) =     5.16626 eV ==== 
 
    |psi|^2 = 0.000
==== e(  31) =     5.38783 eV ==== 
 
    |psi|^2 = 0.000
==== e(  32) =     5.38783 eV ==== 
 
    |psi|^2 = 0.000
==== e(  33) =     5.40594 eV ==== 
     psi = 0.058*[#   6]+0.013*[#  10]+0.008*[#   9]+0.007*[#   5]+0.001*[#   2]
          
    |psi|^2 = 0.087

 k =   0.0000000000  0.0000000000 -0.1750000000
==== e(   1) =   -80.59617 eV ==== 
     psi = 0.998*[#   1]+0.002*[#  10]
    |psi|^2 = 1.000
==== e(   2) =   -47.55691 eV ==== 
     psi = 0.838*[#   4]+0.152*[#   3]+0.009*[#   8]+0.002*[#   7]
    |psi|^2 = 1.000
==== e(   3) =   -47.55691 eV ==== 
     psi = 0.838*[#   3]+0.152*[#   4]+0.009*[#   7]+0.002*[#   8]
    |psi|^2 = 1.000
==== e(   4) =   -47.51831 eV ==== 
     psi = 0.986*[#   2]+0.011*[#   6]+0.002*[#  10]
    |psi|^2 = 1.000
==== e(   5) =   -14.12239 eV ==== 
     psi = 0.882*[#   9]+0.063*[#   6]+0.051*[#   5]+0.002*[#  10]
    |psi|^2 = 0.998
==== e(   6) =    -5.86182 eV ==== 
     psi = 0.572*[#  10]+0.383*[#   5]+0.036*[#   9]
    |psi|^2 = 0.992
==== e(   7) =    -4.03750 eV ==== 
     psi = 0.766*[#  11]+0.136*[#  12]+0.077*[#   7]+0.014*[#   8]
    |psi|^2 = 0.992
==== e(   8) =    -4.03750 eV ==== 
     psi = 0.766*[#  12]+0.136*[#  11]+0.077*[#   8]+0.014*[#   7]
    |psi|^2 = 0.992
==== e(   9) =    -3.72211 eV ==== 
     psi = 0.426*[#   5]+0.286*[#   6]+0.267*[#  10]+0.001*[#   2]
    |psi|^2 = 0.980
==== e(  10) =    -0.56252 eV ==== 
     psi = 0.394*[#   8]+0.347*[#   7]+0.041*[#  12]+0.036*[#  11]+0.004*[#   4]
          +0.004*[#   3]
    |psi|^2 = 0.826
==== e(  11) =    -0.56252 eV ==== 
     psi = 0.394*[#   7]+0.347*[#   8]+0.041*[#  11]+0.036*[#  12]+0.004*[#   3]
          +0.004*[#   4]
    |psi|^2 = 0.826
==== e(  12) =     0.11196 eV ==== 
     psi = 0.143*[#   6]+0.045*[#   5]+0.033*[#  10]+0.018*[#   9]+0.003*[#   2]
          
    |psi|^2 = 0.241
==== e(  13) =     0.36501 eV ==== 
     psi = 0.085*[#   6]+0.021*[#   5]+0.015*[#  10]+0.009*[#   9]+0.001*[#   2]
          
    |psi|^2 = 0.132
==== e(  14) =     1.43616 eV ==== 
 
    |psi|^2 = 0.000
==== e(  15) =     1.65233 eV ==== 
     psi = 0.040*[#   6]+0.016*[#  10]+0.016*[#   5]+0.006*[#   9]
    |psi|^2 = 0.079
==== e(  16) =     2.51807 eV ==== 
     psi = 0.072*[#   6]+0.023*[#  10]+0.015*[#   5]+0.010*[#   9]+0.001*[#   2]
          
    |psi|^2 = 0.122
==== e(  17) =     2.78367 eV ==== 
     psi = 0.049*[#   7]+0.008*[#  11]+0.001*[#   8]
    |psi|^2 = 0.060
==== e(  18) =     2.78367 eV ==== 
     psi = 0.049*[#   8]+0.008*[#  12]+0.001*[#   7]
    |psi|^2 = 0.060
==== e(  19) =     3.04237 eV ==== 
 
    |psi|^2 = 0.000
==== e(  20) =     3.06020 eV ==== 
 
    |psi|^2 = 0.000
==== e(  21) =     3.62642 eV ==== 
     psi = 0.040*[#   6]+0.008*[#   5]+0.008*[#  10]+0.004*[#   9]
    |psi|^2 = 0.062
==== e(  22) =     3.64162 eV ==== 
     psi = 0.006*[#   7]+0.002*[#  11]
    |psi|^2 = 0.009
==== e(  23) =     3.64162 eV ==== 
     psi = 0.006*[#   8]+0.002*[#  12]
    |psi|^2 = 0.009
==== e(  24) =     3.92769 eV ==== 
     psi = 0.028*[#   6]+0.005*[#   5]+0.004*[#   9]+0.003*[#  10]
    |psi|^2 = 0.040
==== e(  25) =     4.10825 eV ==== 
     psi = 0.010*[#   8]+0.002*[#  12]
    |psi|^2 = 0.013
==== e(  26) =     4.10825 eV ==== 
     psi = 0.010*[#   7]+0.002*[#  11]
    |psi|^2 = 0.013
==== e(  27) =     4.22553 eV ==== 
 
    |psi|^2 = 0.000
==== e(  28) =     4.57774 eV ==== 
     psi = 0.022*[#   6]+0.010*[#  10]+0.004*[#   9]+0.004*[#   5]
    |psi|^2 = 0.041
==== e(  29) =     5.11424 eV ==== 
 
    |psi|^2 = 0.000
==== e(  30) =     5.35401 eV ==== 
     psi = 0.017*[#   6]+0.006*[#  10]+0.002*[#   9]+0.001*[#   5]
    |psi|^2 = 0.027
==== e(  31) =     5.37967 eV ==== 
     psi = 0.004*[#   7]+0.002*[#  11]
    |psi|^2 = 0.007
==== e(  32) =     5.37967 eV ==== 
     psi = 0.004*[#   8]+0.002*[#  12]
    |psi|^2 = 0.007
==== e(  33) =     5.95033 eV ==== 
     psi = 0.004*[#   7]+0.002*[#   8]
    |psi|^2 = 0.006

 k =   0.0000000000  0.2500000000  0.0000000000
==== e(   1) =   -80.59617 eV ==== 
     psi = 0.998*[#   1]+0.002*[#  10]
    |psi|^2 = 1.000
==== e(   2) =   -47.55691 eV ==== 
     psi = 0.990*[#   3]+0.010*[#   7]
    |psi|^2 = 1.000
==== e(   3) =   -47.55691 eV ==== 
     psi = 0.990*[#   4]+0.010*[#   8]
    |psi|^2 = 1.000
==== e(   4) =   -47.51831 eV ==== 
     psi = 0.986*[#   2]+0.011*[#   6]+0.002*[#  10]
    |psi|^2 = 1.000
==== e(   5) =   -14.12232 eV ==== 
     psi = 0.882*[#   9]+0.063*[#   6]+0.051*[#   5]+0.002*[#  10]
    |psi|^2 = 0.998
==== e(   6) =    -5.85694 eV ==== 
     psi = 0.575*[#  10]+0.380*[#   5]+0.036*[#   9]
    |psi|^2 = 0.992
==== e(   7) =    -4.05265 eV ==== 
     psi = 0.894*[#  12]+0.095*[#   8]
    |psi|^2 = 0.991
==== e(   8) =    -4.03631 eV ==== 
     psi = 0.902*[#  11]+0.090*[#   7]
    |psi|^2 = 0.992
==== e(   9) =    -3.70972 eV ==== 
     psi = 0.428*[#   5]+0.288*[#   6]+0.263*[#  10]+0.001*[#  12]+0.001*[#   2]
          
    |psi|^2 = 0.981
==== e(  10) =    -0.86022 eV ==== 
     psi = 0.635*[#   8]+0.074*[#  12]+0.007*[#   4]+0.003*[#   6]
    |psi|^2 = 0.719
==== e(  11) =    -0.53332 eV ==== 
     psi = 0.749*[#   7]+0.077*[#  11]+0.008*[#   3]
    |psi|^2 = 0.834
==== e(  12) =     0.50900 eV ==== 
     psi = 0.204*[#   6]+0.076*[#   5]+0.059*[#  10]+0.027*[#   9]+0.004*[#   2]
          
    |psi|^2 = 0.371
==== e(  13) =     0.51533 eV ==== 
     psi = 0.052*[#   6]+0.052*[#   8]+0.004*[#   9]+0.004*[#  12]+0.003*[#   5]
          
    |psi|^2 = 0.116
==== e(  14) =     1.49893 eV ==== 
     psi = 0.020*[#   8]+0.005*[#   6]+0.003*[#  10]+0.002*[#   5]+0.001*[#   9]
          +0.001*[#  12]
    |psi|^2 = 0.033
==== e(  15) =     1.67245 eV ==== 
     psi = 0.060*[#   8]+0.007*[#   6]+0.006*[#  12]+0.001*[#   5]+0.002*[#   9]
          +0.002*[#  10]
    |psi|^2 = 0.078
==== e(  16) =     2.15258 eV ==== 
     psi = 0.012*[#   6]+0.007*[#  10]+0.004*[#   5]+0.002*[#   9]+0.001*[#  12]
          
    |psi|^2 = 0.026
==== e(  17) =     2.41595 eV ==== 
     psi = 0.012*[#   7]+0.001*[#  11]
    |psi|^2 = 0.014
==== e(  18) =     2.49555 eV ==== 
     psi = 0.066*[#   6]+0.012*[#  10]+0.011*[#   5]+0.008*[#   9]+0.001*[#   2]
          
    |psi|^2 = 0.100
==== e(  19) =     2.94780 eV ==== 
     psi = 0.031*[#   7]+0.007*[#  11]
    |psi|^2 = 0.038
==== e(  20) =     3.07406 eV ==== 
     psi = 0.021*[#   6]+0.012*[#  10]+0.004*[#   5]+0.004*[#   8]+0.003*[#   9]
          +0.001*[#  12]
    |psi|^2 = 0.045
==== e(  21) =     3.14214 eV ==== 
     psi = 0.011*[#   8]+0.002*[#  12]
    |psi|^2 = 0.014
==== e(  22) =     3.75238 eV ==== 
     psi = 0.022*[#   6]+0.005*[#  10]+0.003*[#   8]+0.003*[#   9]+0.003*[#   5]
          
    |psi|^2 = 0.036
==== e(  23) =     4.08053 eV ==== 
     psi = 0.004*[#   7]+0.003*[#  11]
    |psi|^2 = 0.006
==== e(  24) =     4.09602 eV ==== 
     psi = 0.018*[#   8]+0.005*[#  12]
    |psi|^2 = 0.024
==== e(  25) =     4.43831 eV ==== 
     psi = 0.002*[#   8]
    |psi|^2 = 0.004
==== e(  26) =     4.44197 eV ==== 
 
    |psi|^2 = 0.001
==== e(  27) =     4.74128 eV ==== 
     psi = 0.026*[#   6]+0.007*[#   5]+0.004*[#  10]+0.002*[#   9]
    |psi|^2 = 0.040
==== e(  28) =     4.93860 eV ==== 
     psi = 0.012*[#   7]
    |psi|^2 = 0.013
==== e(  29) =     5.04459 eV ==== 
     psi = 0.003*[#   8]+0.001*[#   6]
    |psi|^2 = 0.005
==== e(  30) =     5.15051 eV ==== 
     psi = 0.011*[#   7]+0.002*[#  11]
    |psi|^2 = 0.013
==== e(  31) =     5.27121 eV ==== 
     psi = 0.004*[#   6]+0.002*[#   5]+0.002*[#  10]
    |psi|^2 = 0.010
==== e(  32) =     5.53071 eV ==== 
     psi = 0.011*[#   6]+0.002*[#   5]+0.002*[#   8]+0.001*[#   9]
    |psi|^2 = 0.017
==== e(  33) =     5.59617 eV ==== 
     psi = 0.009*[#   8]+0.002*[#   6]
    |psi|^2 = 0.013

 k =   0.0000000000  0.2500000000  0.1750000000
==== e(   1) =   -80.59617 eV ==== 
     psi = 0.998*[#   1]+0.002*[#  10]
    |psi|^2 = 1.000
==== e(   2) =   -47.55691 eV ==== 
     psi = 0.990*[#   3]+0.010*[#   7]
    |psi|^2 = 1.000
==== e(   3) =   -47.55691 eV ==== 
     psi = 0.990*[#   4]+0.010*[#   8]
    |psi|^2 = 1.000
==== e(   4) =   -47.51831 eV ==== 
     psi = 0.986*[#   2]+0.011*[#   6]+0.002*[#  10]
    |psi|^2 = 1.000
==== e(   5) =   -14.12232 eV ==== 
     psi = 0.882*[#   9]+0.063*[#   6]+0.051*[#   5]+0.002*[#  10]
    |psi|^2 = 0.998
==== e(   6) =    -5.85798 eV ==== 
     psi = 0.575*[#  10]+0.380*[#   5]+0.036*[#   9]
    |psi|^2 = 0.992
==== e(   7) =    -4.05249 eV ==== 
     psi = 0.895*[#  12]+0.095*[#   8]
    |psi|^2 = 0.991
==== e(   8) =    -4.03622 eV ==== 
     psi = 0.902*[#  11]+0.090*[#   7]
    |psi|^2 = 0.992
==== e(   9) =    -3.70356 eV ==== 
     psi = 0.427*[#   5]+0.288*[#   6]+0.264*[#  10]+0.001*[#  12]+0.001*[#   2]
          
    |psi|^2 = 0.982
==== e(  10) =    -0.86314 eV ==== 
     psi = 0.636*[#   8]+0.074*[#  12]+0.007*[#   4]+0.002*[#   6]
    |psi|^2 = 0.719
==== e(  11) =    -0.53609 eV ==== 
     psi = 0.748*[#   7]+0.077*[#  11]+0.008*[#   3]
    |psi|^2 = 0.833
==== e(  12) =     0.27858 eV ==== 
     psi = 0.164*[#   6]+0.057*[#   5]+0.044*[#  10]+0.022*[#   9]+0.006*[#   8]
          +0.003*[#   2]
    |psi|^2 = 0.297
==== e(  13) =     0.66897 eV ==== 
     psi = 0.072*[#   6]+0.048*[#   8]+0.014*[#   5]+0.009*[#  10]+0.007*[#   9]
          +0.004*[#  12]+0.001*[#   2]
    |psi|^2 = 0.154
==== e(  14) =     1.55720 eV ==== 
     psi = 0.041*[#   8]+0.012*[#   6]+0.005*[#  10]+0.005*[#   5]+0.003*[#  12]
          +0.002*[#   9]
    |psi|^2 = 0.069
==== e(  15) =     1.81243 eV ==== 
     psi = 0.038*[#   8]+0.021*[#   6]+0.010*[#  10]+0.008*[#   5]+0.005*[#  12]
          +0.003*[#   9]
    |psi|^2 = 0.086
==== e(  16) =     2.04483 eV ==== 
     psi = 0.024*[#   6]+0.006*[#   5]+0.006*[#  10]+0.004*[#   9]+0.001*[#  12]
          
    |psi|^2 = 0.041
==== e(  17) =     2.44187 eV ==== 
     psi = 0.011*[#   7]
    |psi|^2 = 0.012
==== e(  18) =     2.70581 eV ==== 
     psi = 0.049*[#   6]+0.009*[#   5]+0.008*[#  10]+0.006*[#   9]+0.003*[#   8]
          
    |psi|^2 = 0.077
==== e(  19) =     2.88567 eV ==== 
     psi = 0.010*[#   6]+0.008*[#  10]+0.003*[#   8]+0.002*[#   5]+0.002*[#   9]
          
    |psi|^2 = 0.026
==== e(  20) =     2.99252 eV ==== 
     psi = 0.035*[#   7]+0.008*[#  11]
    |psi|^2 = 0.043
==== e(  21) =     3.24418 eV ==== 
     psi = 0.008*[#   8]+0.002*[#  12]+0.001*[#   6]
    |psi|^2 = 0.013
==== e(  22) =     3.74928 eV ==== 
     psi = 0.004*[#   8]+0.004*[#   6]+0.002*[#   5]+0.002*[#  10]+0.001*[#  12]
          
    |psi|^2 = 0.014
==== e(  23) =     3.92686 eV ==== 
     psi = 0.007*[#   7]+0.003*[#  11]
    |psi|^2 = 0.010
==== e(  24) =     4.16170 eV ==== 
     psi = 0.027*[#   6]+0.008*[#   8]+0.006*[#  10]+0.005*[#   5]+0.003*[#   9]
          +0.002*[#  12]
    |psi|^2 = 0.052
==== e(  25) =     4.32120 eV ==== 
     psi = 0.012*[#   6]+0.005*[#   8]+0.004*[#  10]+0.003*[#   5]+0.002*[#  12]
          +0.002*[#   9]
    |psi|^2 = 0.027
==== e(  26) =     4.41288 eV ==== 
     psi = 0.001*[#  11]
    |psi|^2 = 0.001
==== e(  27) =     4.59016 eV ==== 
     psi = 0.037*[#   6]+0.008*[#  10]+0.005*[#   5]+0.005*[#   9]+0.003*[#   8]
          
    |psi|^2 = 0.059
==== e(  28) =     4.82043 eV ==== 
     psi = 0.011*[#   7]+0.001*[#  11]
    |psi|^2 = 0.012
==== e(  29) =     4.85542 eV ==== 
     psi = 0.007*[#   6]+0.001*[#   5]+0.001*[#  10]
    |psi|^2 = 0.011
==== e(  30) =     5.12712 eV ==== 
     psi = 0.009*[#   8]+0.004*[#   6]
    |psi|^2 = 0.015
==== e(  31) =     5.32461 eV ==== 
     psi = 0.004*[#   7]
    |psi|^2 = 0.004
==== e(  32) =     5.38810 eV ==== 
     psi = 0.004*[#   6]+0.001*[#   8]
    |psi|^2 = 0.007
==== e(  33) =     5.67709 eV ==== 
     psi = 0.001*[#   8]
    |psi|^2 = 0.002

 k =   0.0000000000  0.2500000000 -0.3500000000
==== e(   1) =   -80.59617 eV ==== 
     psi = 0.998*[#   1]+0.002*[#  10]
    |psi|^2 = 1.000
==== e(   2) =   -47.55691 eV ==== 
     psi = 0.990*[#   3]+0.010*[#   7]
    |psi|^2 = 1.000
==== e(   3) =   -47.55691 eV ==== 
     psi = 0.990*[#   4]+0.010*[#   8]
    |psi|^2 = 1.000
==== e(   4) =   -47.51831 eV ==== 
     psi = 0.986*[#   2]+0.011*[#   6]+0.002*[#  10]
    |psi|^2 = 1.000
==== e(   5) =   -14.12232 eV ==== 
     psi = 0.882*[#   9]+0.063*[#   6]+0.051*[#   5]+0.002*[#  10]
    |psi|^2 = 0.998
==== e(   6) =    -5.85901 eV ==== 
     psi = 0.574*[#  10]+0.380*[#   5]+0.036*[#   9]
    |psi|^2 = 0.992
==== e(   7) =    -4.05234 eV ==== 
     psi = 0.895*[#  12]+0.095*[#   8]
    |psi|^2 = 0.991
==== e(   8) =    -4.03614 eV ==== 
     psi = 0.902*[#  11]+0.090*[#   7]
    |psi|^2 = 0.992
==== e(   9) =    -3.69737 eV ==== 
     psi = 0.427*[#   5]+0.289*[#   6]+0.264*[#  10]+0.001*[#   2]+0.001*[#  12]
          
    |psi|^2 = 0.983
==== e(  10) =    -0.86605 eV ==== 
     psi = 0.637*[#   8]+0.073*[#  12]+0.007*[#   4]+0.002*[#   6]
    |psi|^2 = 0.719
==== e(  11) =    -0.53886 eV ==== 
     psi = 0.747*[#   7]+0.076*[#  11]+0.008*[#   3]
    |psi|^2 = 0.832
==== e(  12) =     0.16843 eV ==== 
     psi = 0.171*[#   6]+0.060*[#   5]+0.046*[#  10]+0.024*[#   9]+0.003*[#   2]
          +0.002*[#   8]
    |psi|^2 = 0.307
==== e(  13) =     0.71737 eV ==== 
     psi = 0.052*[#   6]+0.052*[#   8]+0.005*[#   5]+0.004*[#  12]+0.004*[#   9]
          +0.001*[#  10]
    |psi|^2 = 0.119
==== e(  14) =     1.63514 eV ==== 
     psi = 0.049*[#   8]+0.028*[#   6]+0.012*[#  10]+0.009*[#   5]+0.007*[#  12]
          +0.004*[#   9]
    |psi|^2 = 0.112
==== e(  15) =     1.72876 eV ==== 
     psi = 0.025*[#   8]+0.014*[#   6]+0.006*[#  10]+0.004*[#   5]+0.002*[#   9]
          
    |psi|^2 = 0.052
==== e(  16) =     2.25928 eV ==== 
     psi = 0.036*[#   6]+0.012*[#   5]+0.011*[#  10]+0.008*[#   8]+0.004*[#   9]
          +0.002*[#  12]
    |psi|^2 = 0.074
==== e(  17) =     2.46945 eV ==== 
     psi = 0.009*[#   7]
    |psi|^2 = 0.010
==== e(  18) =     2.69596 eV ==== 
     psi = 0.015*[#   6]+0.005*[#   8]+0.005*[#   5]+0.002*[#   9]
    |psi|^2 = 0.027
==== e(  19) =     3.02428 eV ==== 
     psi = 0.003*[#   6]
    |psi|^2 = 0.004
==== e(  20) =     3.04025 eV ==== 
     psi = 0.039*[#   7]+0.009*[#  11]
    |psi|^2 = 0.049
==== e(  21) =     3.28508 eV ==== 
     psi = 0.033*[#   6]+0.010*[#  10]+0.009*[#   5]+0.005*[#   9]+0.002*[#   8]
          
    |psi|^2 = 0.060
==== e(  22) =     3.39973 eV ==== 
     psi = 0.009*[#   8]+0.004*[#   6]+0.003*[#  12]
    |psi|^2 = 0.018
==== e(  23) =     3.83296 eV ==== 
     psi = 0.011*[#   7]+0.003*[#  11]
    |psi|^2 = 0.014
==== e(  24) =     4.14154 eV ==== 
     psi = 0.047*[#   6]+0.014*[#  10]+0.008*[#   5]+0.007*[#   9]+0.004*[#   8]
          
    |psi|^2 = 0.081
==== e(  25) =     4.22527 eV ==== 
     psi = 0.001*[#   6]+0.001*[#  10]+0.001*[#  12]
    |psi|^2 = 0.004
==== e(  26) =     4.32233 eV ==== 
 
    |psi|^2 = 0.000
==== e(  27) =     4.62294 eV ==== 
     psi = 0.024*[#   6]+0.005*[#  10]+0.004*[#   5]+0.003*[#   8]+0.003*[#   9]
          +0.001*[#  12]
    |psi|^2 = 0.041
==== e(  28) =     4.67057 eV ==== 
     psi = 0.005*[#   7]
    |psi|^2 = 0.005
==== e(  29) =     4.98829 eV ==== 
     psi = 0.028*[#   6]+0.005*[#  10]+0.004*[#   5]+0.003*[#   9]
    |psi|^2 = 0.041
==== e(  30) =     5.14325 eV ==== 
     psi = 0.018*[#   8]+0.005*[#   6]+0.002*[#  12]
    |psi|^2 = 0.027
==== e(  31) =     5.46099 eV ==== 
     psi = 0.010*[#   6]+0.004*[#   8]+0.002*[#  10]+0.002*[#   9]+0.001*[#   5]
          
    |psi|^2 = 0.020
==== e(  32) =     5.59414 eV ==== 
 
    |psi|^2 = 0.001
==== e(  33) =     5.82440 eV ==== 
     psi = 0.005*[#   6]+0.005*[#  10]+0.002*[#   8]+0.001*[#   9]
    |psi|^2 = 0.016

 k =   0.0000000000  0.2500000000 -0.1750000000
==== e(   1) =   -80.59617 eV ==== 
     psi = 0.998*[#   1]+0.002*[#  10]
    |psi|^2 = 1.000
==== e(   2) =   -47.55691 eV ==== 
     psi = 0.990*[#   3]+0.010*[#   7]
    |psi|^2 = 1.000
==== e(   3) =   -47.55691 eV ==== 
     psi = 0.990*[#   4]+0.010*[#   8]
    |psi|^2 = 1.000
==== e(   4) =   -47.51831 eV ==== 
     psi = 0.986*[#   2]+0.011*[#   6]+0.002*[#  10]
    |psi|^2 = 1.000
==== e(   5) =   -14.12232 eV ==== 
     psi = 0.882*[#   9]+0.063*[#   6]+0.051*[#   5]+0.002*[#  10]
    |psi|^2 = 0.998
==== e(   6) =    -5.85798 eV ==== 
     psi = 0.575*[#  10]+0.380*[#   5]+0.036*[#   9]
    |psi|^2 = 0.992
==== e(   7) =    -4.05249 eV ==== 
     psi = 0.895*[#  12]+0.095*[#   8]
    |psi|^2 = 0.991
==== e(   8) =    -4.03622 eV ==== 
     psi = 0.902*[#  11]+0.090*[#   7]
    |psi|^2 = 0.992
==== e(   9) =    -3.70356 eV ==== 
     psi = 0.427*[#   5]+0.288*[#   6]+0.264*[#  10]+0.001*[#  12]+0.001*[#   2]
          
    |psi|^2 = 0.982
==== e(  10) =    -0.86314 eV ==== 
     psi = 0.636*[#   8]+0.074*[#  12]+0.007*[#   4]+0.002*[#   6]
    |psi|^2 = 0.719
==== e(  11) =    -0.53609 eV ==== 
     psi = 0.748*[#   7]+0.077*[#  11]+0.008*[#   3]
    |psi|^2 = 0.833
==== e(  12) =     0.27858 eV ==== 
     psi = 0.164*[#   6]+0.057*[#   5]+0.044*[#  10]+0.022*[#   9]+0.006*[#   8]
          +0.003*[#   2]
    |psi|^2 = 0.297
==== e(  13) =     0.66897 eV ==== 
     psi = 0.072*[#   6]+0.048*[#   8]+0.014*[#   5]+0.009*[#  10]+0.007*[#   9]
          +0.004*[#  12]+0.001*[#   2]
    |psi|^2 = 0.154
==== e(  14) =     1.55720 eV ==== 
     psi = 0.041*[#   8]+0.012*[#   6]+0.005*[#  10]+0.005*[#   5]+0.003*[#  12]
          +0.002*[#   9]
    |psi|^2 = 0.069
==== e(  15) =     1.81243 eV ==== 
     psi = 0.038*[#   8]+0.021*[#   6]+0.010*[#  10]+0.008*[#   5]+0.005*[#  12]
          +0.003*[#   9]
    |psi|^2 = 0.086
==== e(  16) =     2.04483 eV ==== 
     psi = 0.024*[#   6]+0.006*[#   5]+0.006*[#  10]+0.004*[#   9]+0.001*[#  12]
          
    |psi|^2 = 0.041
==== e(  17) =     2.44187 eV ==== 
     psi = 0.011*[#   7]
    |psi|^2 = 0.012
==== e(  18) =     2.70581 eV ==== 
     psi = 0.049*[#   6]+0.009*[#   5]+0.008*[#  10]+0.006*[#   9]+0.003*[#   8]
          
    |psi|^2 = 0.077
==== e(  19) =     2.88567 eV ==== 
     psi = 0.010*[#   6]+0.008*[#  10]+0.003*[#   8]+0.002*[#   5]+0.002*[#   9]
          
    |psi|^2 = 0.026
==== e(  20) =     2.99252 eV ==== 
     psi = 0.035*[#   7]+0.008*[#  11]
    |psi|^2 = 0.043
==== e(  21) =     3.24418 eV ==== 
     psi = 0.008*[#   8]+0.002*[#  12]+0.001*[#   6]
    |psi|^2 = 0.013
==== e(  22) =     3.74928 eV ==== 
     psi = 0.004*[#   8]+0.004*[#   6]+0.002*[#   5]+0.002*[#  10]+0.001*[#  12]
          
    |psi|^2 = 0.014
==== e(  23) =     3.92686 eV ==== 
     psi = 0.007*[#   7]+0.003*[#  11]
    |psi|^2 = 0.010
==== e(  24) =     4.16170 eV ==== 
     psi = 0.027*[#   6]+0.008*[#   8]+0.006*[#  10]+0.005*[#   5]+0.003*[#   9]
          +0.002*[#  12]
    |psi|^2 = 0.052
==== e(  25) =     4.32120 eV ==== 
     psi = 0.012*[#   6]+0.005*[#   8]+0.004*[#  10]+0.003*[#   5]+0.002*[#  12]
          +0.002*[#   9]
    |psi|^2 = 0.027
==== e(  26) =     4.41288 eV ==== 
     psi = 0.001*[#  11]
    |psi|^2 = 0.001
==== e(  27) =     4.59016 eV ==== 
     psi = 0.037*[#   6]+0.008*[#  10]+0.005*[#   5]+0.005*[#   9]+0.003*[#   8]
          
    |psi|^2 = 0.059
==== e(  28) =     4.82043 eV ==== 
     psi = 0.011*[#   7]+0.001*[#  11]
    |psi|^2 = 0.012
==== e(  29) =     4.85542 eV ==== 
     psi = 0.007*[#   6]+0.001*[#   5]+0.001*[#  10]
    |psi|^2 = 0.011
==== e(  30) =     5.12712 eV ==== 
     psi = 0.009*[#   8]+0.004*[#   6]
    |psi|^2 = 0.015
==== e(  31) =     5.32461 eV ==== 
     psi = 0.004*[#   7]
    |psi|^2 = 0.004
==== e(  32) =     5.38810 eV ==== 
     psi = 0.004*[#   6]+0.001*[#   8]
    |psi|^2 = 0.007
==== e(  33) =     5.67709 eV ==== 
     psi = 0.001*[#   8]
    |psi|^2 = 0.002

 k =   0.0000000000 -0.5000000000  0.0000000000
==== e(   1) =   -80.59617 eV ==== 
     psi = 0.998*[#   1]+0.002*[#  10]
    |psi|^2 = 1.000
==== e(   2) =   -47.55691 eV ==== 
     psi = 0.990*[#   3]+0.010*[#   7]
    |psi|^2 = 1.000
==== e(   3) =   -47.55691 eV ==== 
     psi = 0.990*[#   4]+0.010*[#   8]
    |psi|^2 = 1.000
==== e(   4) =   -47.51831 eV ==== 
     psi = 0.986*[#   2]+0.011*[#   6]+0.002*[#  10]
    |psi|^2 = 1.000
==== e(   5) =   -14.12225 eV ==== 
     psi = 0.882*[#   9]+0.063*[#   6]+0.051*[#   5]+0.002*[#  10]
    |psi|^2 = 0.998
==== e(   6) =    -5.85311 eV ==== 
     psi = 0.577*[#  10]+0.377*[#   5]+0.036*[#   9]
    |psi|^2 = 0.992
==== e(   7) =    -4.06702 eV ==== 
     psi = 0.890*[#  12]+0.100*[#   8]
    |psi|^2 = 0.990
==== e(   8) =    -4.03503 eV ==== 
     psi = 0.902*[#  11]+0.090*[#   7]
    |psi|^2 = 0.992
==== e(   9) =    -3.69078 eV ==== 
     psi = 0.430*[#   5]+0.291*[#   6]+0.261*[#  10]+0.001*[#   2]
    |psi|^2 = 0.983
==== e(  10) =    -1.06131 eV ==== 
     psi = 0.611*[#   8]+0.078*[#  12]+0.007*[#   4]
    |psi|^2 = 0.695
==== e(  11) =    -0.50542 eV ==== 
     psi = 0.757*[#   7]+0.077*[#  11]+0.008*[#   3]
    |psi|^2 = 0.842
==== e(  12) =     0.68058 eV ==== 
     psi = 0.252*[#   6]+0.086*[#   5]+0.067*[#  10]+0.032*[#   9]+0.005*[#   2]
          
    |psi|^2 = 0.443
==== e(  13) =     0.91186 eV ==== 
     psi = 0.027*[#   6]+0.002*[#   9]
    |psi|^2 = 0.029
==== e(  14) =     1.14865 eV ==== 
     psi = 0.110*[#   8]+0.009*[#  12]+0.001*[#   4]
    |psi|^2 = 0.120
==== e(  15) =     1.90145 eV ==== 
     psi = 0.003*[#  12]
    |psi|^2 = 0.003
==== e(  16) =     1.92562 eV ==== 
     psi = 0.038*[#   6]+0.010*[#  10]+0.009*[#   5]+0.007*[#   9]
    |psi|^2 = 0.064
==== e(  17) =     2.15571 eV ==== 
 
    |psi|^2 = 0.000
==== e(  18) =     2.45313 eV ==== 
     psi = 0.043*[#   8]+0.005*[#  12]
    |psi|^2 = 0.049
==== e(  19) =     3.06416 eV ==== 
     psi = 0.063*[#   6]+0.016*[#  10]+0.010*[#   5]+0.007*[#   9]+0.001*[#   2]
          
    |psi|^2 = 0.097
==== e(  20) =     3.06702 eV ==== 
     psi = 0.040*[#   7]+0.008*[#  11]
    |psi|^2 = 0.048
==== e(  21) =     3.45151 eV ==== 
     psi = 0.043*[#   8]+0.004*[#  12]
    |psi|^2 = 0.047
==== e(  22) =     3.50259 eV ==== 
     psi = 0.004*[#  10]
    |psi|^2 = 0.005
==== e(  23) =     4.05710 eV ==== 
     psi = 0.021*[#   6]+0.004*[#  10]+0.003*[#   9]+0.002*[#   5]
    |psi|^2 = 0.031
==== e(  24) =     4.07555 eV ==== 
 
    |psi|^2 = 0.000
==== e(  25) =     4.18181 eV ==== 
     psi = 0.002*[#  12]
    |psi|^2 = 0.003
==== e(  26) =     4.39031 eV ==== 
 
    |psi|^2 = 0.000
==== e(  27) =     4.62171 eV ==== 
     psi = 0.007*[#   7]+0.005*[#  11]
    |psi|^2 = 0.012
==== e(  28) =     4.81824 eV ==== 
     psi = 0.005*[#   8]
    |psi|^2 = 0.006
==== e(  29) =     4.94852 eV ==== 
     psi = 0.002*[#   8]+0.001*[#  12]
    |psi|^2 = 0.003
==== e(  30) =     5.17823 eV ==== 
     psi = 0.011*[#   6]+0.004*[#  10]+0.002*[#   5]
    |psi|^2 = 0.017
==== e(  31) =     5.42793 eV ==== 
     psi = 0.021*[#   6]+0.009*[#   5]+0.004*[#  10]+0.002*[#   9]
    |psi|^2 = 0.036
==== e(  32) =     5.74335 eV ==== 
 
    |psi|^2 = 0.000
==== e(  33) =     5.75454 eV ==== 
     psi = 0.002*[#  11]
    |psi|^2 = 0.002

 k =   0.0000000000 -0.5000000000  0.1750000000
==== e(   1) =   -80.59617 eV ==== 
     psi = 0.998*[#   1]+0.002*[#  10]
    |psi|^2 = 1.000
==== e(   2) =   -47.55691 eV ==== 
     psi = 0.990*[#   3]+0.010*[#   7]
    |psi|^2 = 1.000
==== e(   3) =   -47.55691 eV ==== 
     psi = 0.990*[#   4]+0.010*[#   8]
    |psi|^2 = 1.000
==== e(   4) =   -47.51831 eV ==== 
     psi = 0.986*[#   2]+0.011*[#   6]+0.002*[#  10]
    |psi|^2 = 1.000
==== e(   5) =   -14.12225 eV ==== 
     psi = 0.882*[#   9]+0.063*[#   6]+0.051*[#   5]+0.002*[#  10]
    |psi|^2 = 0.998
==== e(   6) =    -5.85411 eV ==== 
     psi = 0.577*[#  10]+0.378*[#   5]+0.036*[#   9]
    |psi|^2 = 0.992
==== e(   7) =    -4.06682 eV ==== 
     psi = 0.890*[#  12]+0.100*[#   8]
    |psi|^2 = 0.990
==== e(   8) =    -4.03495 eV ==== 
     psi = 0.902*[#  11]+0.090*[#   7]
    |psi|^2 = 0.992
==== e(   9) =    -3.68491 eV ==== 
     psi = 0.430*[#   5]+0.292*[#   6]+0.262*[#  10]+0.001*[#   2]
    |psi|^2 = 0.984
==== e(  10) =    -1.06502 eV ==== 
     psi = 0.611*[#   8]+0.077*[#  12]+0.007*[#   4]
    |psi|^2 = 0.695
==== e(  11) =    -0.50809 eV ==== 
     psi = 0.756*[#   7]+0.077*[#  11]+0.008*[#   3]
    |psi|^2 = 0.841
==== e(  12) =     0.50375 eV ==== 
     psi = 0.215*[#   6]+0.073*[#   5]+0.058*[#  10]+0.029*[#   9]+0.004*[#   2]
          
    |psi|^2 = 0.380
==== e(  13) =     1.01140 eV ==== 
     psi = 0.046*[#   6]+0.007*[#   5]+0.004*[#   9]+0.003*[#  10]
    |psi|^2 = 0.060
==== e(  14) =     1.17419 eV ==== 
     psi = 0.087*[#   8]+0.010*[#  12]
    |psi|^2 = 0.099
==== e(  15) =     1.80050 eV ==== 
     psi = 0.053*[#   8]+0.004*[#  12]
    |psi|^2 = 0.058
==== e(  16) =     2.15731 eV ==== 
     psi = 0.051*[#   6]+0.016*[#  10]+0.016*[#   5]+0.007*[#   9]+0.001*[#   2]
          
    |psi|^2 = 0.091
==== e(  17) =     2.17111 eV ==== 
 
    |psi|^2 = 0.000
==== e(  18) =     2.63991 eV ==== 
     psi = 0.015*[#   8]+0.003*[#  12]
    |psi|^2 = 0.019
==== e(  19) =     2.94197 eV ==== 
     psi = 0.054*[#   6]+0.013*[#  10]+0.010*[#   5]+0.006*[#   9]+0.001*[#   2]
          
    |psi|^2 = 0.084
==== e(  20) =     3.15387 eV ==== 
     psi = 0.044*[#   7]+0.010*[#  11]
    |psi|^2 = 0.054
==== e(  21) =     3.46624 eV ==== 
     psi = 0.002*[#   6]+0.001*[#  10]
    |psi|^2 = 0.003
==== e(  22) =     3.49187 eV ==== 
     psi = 0.031*[#   8]+0.003*[#  12]
    |psi|^2 = 0.035
==== e(  23) =     3.76430 eV ==== 
 
    |psi|^2 = 0.000
==== e(  24) =     4.12673 eV ==== 
     psi = 0.009*[#   8]+0.002*[#  12]
    |psi|^2 = 0.012
==== e(  25) =     4.26478 eV ==== 
 
    |psi|^2 = 0.001
==== e(  26) =     4.33899 eV ==== 
     psi = 0.014*[#   6]+0.006*[#  10]+0.003*[#   5]+0.002*[#   9]
    |psi|^2 = 0.024
==== e(  27) =     4.41156 eV ==== 
     psi = 0.006*[#   7]+0.003*[#  11]
    |psi|^2 = 0.009
==== e(  28) =     4.75709 eV ==== 
     psi = 0.062*[#   6]+0.014*[#  10]+0.011*[#   5]+0.009*[#   9]+0.001*[#   2]
          
    |psi|^2 = 0.098
==== e(  29) =     4.91361 eV ==== 
 
    |psi|^2 = 0.000
==== e(  30) =     5.26510 eV ==== 
     psi = 0.003*[#   8]+0.001*[#  12]
    |psi|^2 = 0.005
==== e(  31) =     5.34416 eV ==== 
     psi = 0.010*[#   6]+0.004*[#  10]+0.001*[#   9]
    |psi|^2 = 0.016
==== e(  32) =     5.61064 eV ==== 
     psi = 0.005*[#   7]
    |psi|^2 = 0.006
==== e(  33) =     5.89015 eV ==== 
     psi = 0.006*[#   8]+0.002*[#  12]
    |psi|^2 = 0.008

 k =   0.0000000000 -0.5000000000 -0.3500000000
==== e(   1) =   -80.59617 eV ==== 
     psi = 0.998*[#   1]+0.002*[#  10]
    |psi|^2 = 1.000
==== e(   2) =   -47.55691 eV ==== 
     psi = 0.990*[#   4]+0.010*[#   8]
    |psi|^2 = 1.000
==== e(   3) =   -47.55691 eV ==== 
     psi = 0.990*[#   3]+0.010*[#   7]
    |psi|^2 = 1.000
==== e(   4) =   -47.51831 eV ==== 
     psi = 0.986*[#   2]+0.011*[#   6]+0.002*[#  10]
    |psi|^2 = 1.000
==== e(   5) =   -14.12225 eV ==== 
     psi = 0.882*[#   9]+0.063*[#   6]+0.051*[#   5]+0.002*[#  10]
    |psi|^2 = 0.998
==== e(   6) =    -5.85512 eV ==== 
     psi = 0.577*[#  10]+0.378*[#   5]+0.036*[#   9]
    |psi|^2 = 0.992
==== e(   7) =    -4.06663 eV ==== 
     psi = 0.890*[#  12]+0.100*[#   8]
    |psi|^2 = 0.990
==== e(   8) =    -4.03487 eV ==== 
     psi = 0.902*[#  11]+0.090*[#   7]
    |psi|^2 = 0.992
==== e(   9) =    -3.67900 eV ==== 
     psi = 0.429*[#   5]+0.292*[#   6]+0.262*[#  10]+0.001*[#   2]
    |psi|^2 = 0.985
==== e(  10) =    -1.06870 eV ==== 
     psi = 0.611*[#   8]+0.076*[#  12]+0.007*[#   4]
    |psi|^2 = 0.694
==== e(  11) =    -0.51074 eV ==== 
     psi = 0.755*[#   7]+0.076*[#  11]+0.008*[#   3]
    |psi|^2 = 0.840
==== e(  12) =     0.39108 eV ==== 
     psi = 0.211*[#   6]+0.072*[#   5]+0.057*[#  10]+0.029*[#   9]+0.004*[#   2]
          
    |psi|^2 = 0.374
==== e(  13) =     1.05835 eV ==== 
     psi = 0.039*[#   6]+0.004*[#   5]+0.003*[#   9]
    |psi|^2 = 0.046
==== e(  14) =     1.20450 eV ==== 
     psi = 0.059*[#   8]+0.012*[#  12]
    |psi|^2 = 0.071
==== e(  15) =     1.71568 eV ==== 
     psi = 0.098*[#   8]+0.004*[#  12]+0.001*[#   4]
    |psi|^2 = 0.103
==== e(  16) =     2.18748 eV ==== 
 
    |psi|^2 = 0.000
==== e(  17) =     2.38975 eV ==== 
     psi = 0.061*[#   6]+0.024*[#  10]+0.019*[#   5]+0.007*[#   9]+0.001*[#   2]
          
    |psi|^2 = 0.112
==== e(  18) =     2.87442 eV ==== 
     psi = 0.008*[#   8]+0.003*[#  12]
    |psi|^2 = 0.011
==== e(  19) =     2.93726 eV ==== 
     psi = 0.038*[#   6]+0.011*[#   5]+0.004*[#   9]+0.004*[#  10]
    |psi|^2 = 0.058
==== e(  20) =     3.26714 eV ==== 
     psi = 0.051*[#   7]+0.012*[#  11]
    |psi|^2 = 0.064
==== e(  21) =     3.38656 eV ==== 
     psi = 0.012*[#   6]+0.001*[#   9]
    |psi|^2 = 0.014
==== e(  22) =     3.46139 eV ==== 
     psi = 0.002*[#   8]
    |psi|^2 = 0.002
==== e(  23) =     3.60830 eV ==== 
 
    |psi|^2 = 0.000
==== e(  24) =     3.98522 eV ==== 
     psi = 0.007*[#   8]
    |psi|^2 = 0.007
==== e(  25) =     4.05582 eV ==== 
     psi = 0.025*[#   8]+0.004*[#  12]
    |psi|^2 = 0.028
==== e(  26) =     4.13605 eV ==== 
     psi = 0.036*[#   6]+0.014*[#  10]+0.008*[#   5]+0.007*[#   9]
    |psi|^2 = 0.065
==== e(  27) =     4.19046 eV ==== 
     psi = 0.001*[#   7]
    |psi|^2 = 0.002
==== e(  28) =     5.00134 eV ==== 
     psi = 0.062*[#   6]+0.019*[#  10]+0.008*[#   9]+0.006*[#   5]+0.001*[#   2]
          
    |psi|^2 = 0.096
==== e(  29) =     5.32887 eV ==== 
     psi = 0.006*[#   8]+0.003*[#  12]
    |psi|^2 = 0.010
==== e(  30) =     5.42961 eV ==== 
     psi = 0.020*[#   6]+0.003*[#   5]+0.003*[#  10]+0.002*[#   9]
    |psi|^2 = 0.029
==== e(  31) =     5.55657 eV ==== 
     psi = 0.005*[#   7]
    |psi|^2 = 0.006
==== e(  32) =     5.61490 eV ==== 
 
    |psi|^2 = 0.000
==== e(  33) =     5.67621 eV ==== 
     psi = 0.006*[#   6]
    |psi|^2 = 0.008

 k =   0.0000000000 -0.5000000000 -0.1750000000
==== e(   1) =   -80.59617 eV ==== 
     psi = 0.998*[#   1]+0.002*[#  10]
    |psi|^2 = 1.000
==== e(   2) =   -47.55691 eV ==== 
     psi = 0.990*[#   3]+0.010*[#   7]
    |psi|^2 = 1.000
==== e(   3) =   -47.55691 eV ==== 
     psi = 0.990*[#   4]+0.010*[#   8]
    |psi|^2 = 1.000
==== e(   4) =   -47.51831 eV ==== 
     psi = 0.986*[#   2]+0.011*[#   6]+0.002*[#  10]
    |psi|^2 = 1.000
==== e(   5) =   -14.12225 eV ==== 
     psi = 0.882*[#   9]+0.063*[#   6]+0.051*[#   5]+0.002*[#  10]
    |psi|^2 = 0.998
==== e(   6) =    -5.85411 eV ==== 
     psi = 0.577*[#  10]+0.378*[#   5]+0.036*[#   9]
    |psi|^2 = 0.992
==== e(   7) =    -4.06682 eV ==== 
     psi = 0.890*[#  12]+0.100*[#   8]
    |psi|^2 = 0.990
==== e(   8) =    -4.03495 eV ==== 
     psi = 0.902*[#  11]+0.090*[#   7]
    |psi|^2 = 0.992
==== e(   9) =    -3.68491 eV ==== 
     psi = 0.430*[#   5]+0.292*[#   6]+0.262*[#  10]+0.001*[#   2]
    |psi|^2 = 0.984
==== e(  10) =    -1.06502 eV ==== 
     psi = 0.611*[#   8]+0.077*[#  12]+0.007*[#   4]
    |psi|^2 = 0.695
==== e(  11) =    -0.50809 eV ==== 
     psi = 0.756*[#   7]+0.077*[#  11]+0.008*[#   3]
    |psi|^2 = 0.841
==== e(  12) =     0.50375 eV ==== 
     psi = 0.215*[#   6]+0.073*[#   5]+0.058*[#  10]+0.029*[#   9]+0.004*[#   2]
          
    |psi|^2 = 0.380
==== e(  13) =     1.01140 eV ==== 
     psi = 0.046*[#   6]+0.007*[#   5]+0.004*[#   9]+0.003*[#  10]
    |psi|^2 = 0.060
==== e(  14) =     1.17419 eV ==== 
     psi = 0.087*[#   8]+0.010*[#  12]
    |psi|^2 = 0.099
==== e(  15) =     1.80050 eV ==== 
     psi = 0.053*[#   8]+0.004*[#  12]
    |psi|^2 = 0.058
==== e(  16) =     2.15731 eV ==== 
     psi = 0.051*[#   6]+0.016*[#  10]+0.016*[#   5]+0.007*[#   9]+0.001*[#   2]
          
    |psi|^2 = 0.091
==== e(  17) =     2.17111 eV ==== 
 
    |psi|^2 = 0.000
==== e(  18) =     2.63991 eV ==== 
     psi = 0.015*[#   8]+0.003*[#  12]
    |psi|^2 = 0.019
==== e(  19) =     2.94197 eV ==== 
     psi = 0.054*[#   6]+0.013*[#  10]+0.010*[#   5]+0.006*[#   9]+0.001*[#   2]
          
    |psi|^2 = 0.084
==== e(  20) =     3.15387 eV ==== 
     psi = 0.044*[#   7]+0.010*[#  11]
    |psi|^2 = 0.054
==== e(  21) =     3.46624 eV ==== 
     psi = 0.002*[#   6]+0.001*[#  10]
    |psi|^2 = 0.003
==== e(  22) =     3.49187 eV ==== 
     psi = 0.031*[#   8]+0.003*[#  12]
    |psi|^2 = 0.035
==== e(  23) =     3.76430 eV ==== 
 
    |psi|^2 = 0.000
==== e(  24) =     4.12673 eV ==== 
     psi = 0.009*[#   8]+0.002*[#  12]
    |psi|^2 = 0.012
==== e(  25) =     4.26478 eV ==== 
 
    |psi|^2 = 0.001
==== e(  26) =     4.33899 eV ==== 
     psi = 0.014*[#   6]+0.006*[#  10]+0.003*[#   5]+0.002*[#   9]
    |psi|^2 = 0.024
==== e(  27) =     4.41156 eV ==== 
     psi = 0.006*[#   7]+0.003*[#  11]
    |psi|^2 = 0.009
==== e(  28) =     4.75709 eV ==== 
     psi = 0.062*[#   6]+0.014*[#  10]+0.011*[#   5]+0.009*[#   9]+0.001*[#   2]
          
    |psi|^2 = 0.098
==== e(  29) =     4.91361 eV ==== 
 
    |psi|^2 = 0.000
==== e(  30) =     5.26510 eV ==== 
     psi = 0.003*[#   8]+0.001*[#  12]
    |psi|^2 = 0.005
==== e(  31) =     5.34416 eV ==== 
     psi = 0.010*[#   6]+0.004*[#  10]+0.001*[#   9]
    |psi|^2 = 0.016
==== e(  32) =     5.61064 eV ==== 
     psi = 0.005*[#   7]
    |psi|^2 = 0.006
==== e(  33) =     5.89015 eV ==== 
     psi = 0.006*[#   8]+0.002*[#  12]
    |psi|^2 = 0.008

 k =   0.0000000000 -0.2500000000  0.0000000000
==== e(   1) =   -80.59617 eV ==== 
     psi = 0.998*[#   1]+0.002*[#  10]
    |psi|^2 = 1.000
==== e(   2) =   -47.55691 eV ==== 
     psi = 0.990*[#   3]+0.010*[#   7]
    |psi|^2 = 1.000
==== e(   3) =   -47.55691 eV ==== 
     psi = 0.990*[#   4]+0.010*[#   8]
    |psi|^2 = 1.000
==== e(   4) =   -47.51831 eV ==== 
     psi = 0.986*[#   2]+0.011*[#   6]+0.002*[#  10]
    |psi|^2 = 1.000
==== e(   5) =   -14.12232 eV ==== 
     psi = 0.882*[#   9]+0.063*[#   6]+0.051*[#   5]+0.002*[#  10]
    |psi|^2 = 0.998
==== e(   6) =    -5.85694 eV ==== 
     psi = 0.575*[#  10]+0.380*[#   5]+0.036*[#   9]
    |psi|^2 = 0.992
==== e(   7) =    -4.05265 eV ==== 
     psi = 0.894*[#  12]+0.095*[#   8]
    |psi|^2 = 0.991
==== e(   8) =    -4.03631 eV ==== 
     psi = 0.902*[#  11]+0.090*[#   7]
    |psi|^2 = 0.992
==== e(   9) =    -3.70972 eV ==== 
     psi = 0.428*[#   5]+0.288*[#   6]+0.263*[#  10]+0.001*[#  12]+0.001*[#   2]
          
    |psi|^2 = 0.981
==== e(  10) =    -0.86022 eV ==== 
     psi = 0.635*[#   8]+0.074*[#  12]+0.007*[#   4]+0.003*[#   6]
    |psi|^2 = 0.719
==== e(  11) =    -0.53332 eV ==== 
     psi = 0.749*[#   7]+0.077*[#  11]+0.008*[#   3]
    |psi|^2 = 0.834
==== e(  12) =     0.50900 eV ==== 
     psi = 0.204*[#   6]+0.076*[#   5]+0.059*[#  10]+0.027*[#   9]+0.004*[#   2]
          
    |psi|^2 = 0.371
==== e(  13) =     0.51533 eV ==== 
     psi = 0.052*[#   6]+0.052*[#   8]+0.004*[#   9]+0.004*[#  12]+0.003*[#   5]
          
    |psi|^2 = 0.116
==== e(  14) =     1.49893 eV ==== 
     psi = 0.020*[#   8]+0.005*[#   6]+0.003*[#  10]+0.002*[#   5]+0.001*[#   9]
          +0.001*[#  12]
    |psi|^2 = 0.033
==== e(  15) =     1.67245 eV ==== 
     psi = 0.060*[#   8]+0.007*[#   6]+0.006*[#  12]+0.001*[#   5]+0.002*[#   9]
          +0.002*[#  10]
    |psi|^2 = 0.078
==== e(  16) =     2.15258 eV ==== 
     psi = 0.012*[#   6]+0.007*[#  10]+0.004*[#   5]+0.002*[#   9]+0.001*[#  12]
          
    |psi|^2 = 0.026
==== e(  17) =     2.41595 eV ==== 
     psi = 0.012*[#   7]+0.001*[#  11]
    |psi|^2 = 0.014
==== e(  18) =     2.49555 eV ==== 
     psi = 0.066*[#   6]+0.012*[#  10]+0.011*[#   5]+0.008*[#   9]+0.001*[#   2]
          
    |psi|^2 = 0.100
==== e(  19) =     2.94780 eV ==== 
     psi = 0.031*[#   7]+0.007*[#  11]
    |psi|^2 = 0.038
==== e(  20) =     3.07406 eV ==== 
     psi = 0.021*[#   6]+0.012*[#  10]+0.004*[#   5]+0.004*[#   8]+0.003*[#   9]
          +0.001*[#  12]
    |psi|^2 = 0.045
==== e(  21) =     3.14214 eV ==== 
     psi = 0.011*[#   8]+0.002*[#  12]
    |psi|^2 = 0.014
==== e(  22) =     3.75238 eV ==== 
     psi = 0.022*[#   6]+0.005*[#  10]+0.003*[#   8]+0.003*[#   9]+0.003*[#   5]
          
    |psi|^2 = 0.036
==== e(  23) =     4.08053 eV ==== 
     psi = 0.004*[#   7]+0.003*[#  11]
    |psi|^2 = 0.006
==== e(  24) =     4.09602 eV ==== 
     psi = 0.018*[#   8]+0.005*[#  12]
    |psi|^2 = 0.024
==== e(  25) =     4.43831 eV ==== 
     psi = 0.002*[#   8]
    |psi|^2 = 0.004
==== e(  26) =     4.44197 eV ==== 
 
    |psi|^2 = 0.001
==== e(  27) =     4.74128 eV ==== 
     psi = 0.026*[#   6]+0.007*[#   5]+0.004*[#  10]+0.002*[#   9]
    |psi|^2 = 0.040
==== e(  28) =     4.93860 eV ==== 
     psi = 0.012*[#   7]
    |psi|^2 = 0.013
==== e(  29) =     5.04459 eV ==== 
     psi = 0.003*[#   8]+0.001*[#   6]
    |psi|^2 = 0.005
==== e(  30) =     5.15051 eV ==== 
     psi = 0.011*[#   7]+0.002*[#  11]
    |psi|^2 = 0.013
==== e(  31) =     5.27121 eV ==== 
     psi = 0.004*[#   6]+0.002*[#   5]+0.002*[#  10]
    |psi|^2 = 0.010
==== e(  32) =     5.53071 eV ==== 
     psi = 0.011*[#   6]+0.002*[#   5]+0.002*[#   8]+0.001*[#   9]
    |psi|^2 = 0.017
==== e(  33) =     5.59617 eV ==== 
     psi = 0.009*[#   8]+0.002*[#   6]
    |psi|^2 = 0.013

 k =   0.0000000000 -0.2500000000  0.1750000000
==== e(   1) =   -80.59617 eV ==== 
     psi = 0.998*[#   1]+0.002*[#  10]
    |psi|^2 = 1.000
==== e(   2) =   -47.55691 eV ==== 
     psi = 0.990*[#   3]+0.010*[#   7]
    |psi|^2 = 1.000
==== e(   3) =   -47.55691 eV ==== 
     psi = 0.990*[#   4]+0.010*[#   8]
    |psi|^2 = 1.000
==== e(   4) =   -47.51831 eV ==== 
     psi = 0.986*[#   2]+0.011*[#   6]+0.002*[#  10]
    |psi|^2 = 1.000
==== e(   5) =   -14.12232 eV ==== 
     psi = 0.882*[#   9]+0.063*[#   6]+0.051*[#   5]+0.002*[#  10]
    |psi|^2 = 0.998
==== e(   6) =    -5.85798 eV ==== 
     psi = 0.575*[#  10]+0.380*[#   5]+0.036*[#   9]
    |psi|^2 = 0.992
==== e(   7) =    -4.05249 eV ==== 
     psi = 0.895*[#  12]+0.095*[#   8]
    |psi|^2 = 0.991
==== e(   8) =    -4.03622 eV ==== 
     psi = 0.902*[#  11]+0.090*[#   7]
    |psi|^2 = 0.992
==== e(   9) =    -3.70356 eV ==== 
     psi = 0.427*[#   5]+0.288*[#   6]+0.264*[#  10]+0.001*[#  12]+0.001*[#   2]
          
    |psi|^2 = 0.982
==== e(  10) =    -0.86314 eV ==== 
     psi = 0.636*[#   8]+0.074*[#  12]+0.007*[#   4]+0.002*[#   6]
    |psi|^2 = 0.719
==== e(  11) =    -0.53609 eV ==== 
     psi = 0.748*[#   7]+0.077*[#  11]+0.008*[#   3]
    |psi|^2 = 0.833
==== e(  12) =     0.27858 eV ==== 
     psi = 0.164*[#   6]+0.057*[#   5]+0.044*[#  10]+0.022*[#   9]+0.006*[#   8]
          +0.003*[#   2]
    |psi|^2 = 0.297
==== e(  13) =     0.66897 eV ==== 
     psi = 0.072*[#   6]+0.048*[#   8]+0.014*[#   5]+0.009*[#  10]+0.007*[#   9]
          +0.004*[#  12]+0.001*[#   2]
    |psi|^2 = 0.154
==== e(  14) =     1.55720 eV ==== 
     psi = 0.041*[#   8]+0.012*[#   6]+0.005*[#  10]+0.005*[#   5]+0.003*[#  12]
          +0.002*[#   9]
    |psi|^2 = 0.069
==== e(  15) =     1.81243 eV ==== 
     psi = 0.038*[#   8]+0.021*[#   6]+0.010*[#  10]+0.008*[#   5]+0.005*[#  12]
          +0.003*[#   9]
    |psi|^2 = 0.086
==== e(  16) =     2.04483 eV ==== 
     psi = 0.024*[#   6]+0.006*[#   5]+0.006*[#  10]+0.004*[#   9]+0.001*[#  12]
          
    |psi|^2 = 0.041
==== e(  17) =     2.44187 eV ==== 
     psi = 0.011*[#   7]
    |psi|^2 = 0.012
==== e(  18) =     2.70581 eV ==== 
     psi = 0.049*[#   6]+0.009*[#   5]+0.008*[#  10]+0.006*[#   9]+0.003*[#   8]
          
    |psi|^2 = 0.077
==== e(  19) =     2.88567 eV ==== 
     psi = 0.010*[#   6]+0.008*[#  10]+0.003*[#   8]+0.002*[#   5]+0.002*[#   9]
          
    |psi|^2 = 0.026
==== e(  20) =     2.99252 eV ==== 
     psi = 0.035*[#   7]+0.008*[#  11]
    |psi|^2 = 0.043
==== e(  21) =     3.24418 eV ==== 
     psi = 0.008*[#   8]+0.002*[#  12]+0.001*[#   6]
    |psi|^2 = 0.013
==== e(  22) =     3.74928 eV ==== 
     psi = 0.004*[#   8]+0.004*[#   6]+0.002*[#   5]+0.002*[#  10]+0.001*[#  12]
          
    |psi|^2 = 0.014
==== e(  23) =     3.92686 eV ==== 
     psi = 0.007*[#   7]+0.003*[#  11]
    |psi|^2 = 0.010
==== e(  24) =     4.16170 eV ==== 
     psi = 0.027*[#   6]+0.008*[#   8]+0.006*[#  10]+0.005*[#   5]+0.003*[#   9]
          +0.002*[#  12]
    |psi|^2 = 0.052
==== e(  25) =     4.32120 eV ==== 
     psi = 0.012*[#   6]+0.005*[#   8]+0.004*[#  10]+0.003*[#   5]+0.002*[#  12]
          +0.002*[#   9]
    |psi|^2 = 0.027
==== e(  26) =     4.41288 eV ==== 
     psi = 0.001*[#  11]
    |psi|^2 = 0.001
==== e(  27) =     4.59016 eV ==== 
     psi = 0.037*[#   6]+0.008*[#  10]+0.005*[#   5]+0.005*[#   9]+0.003*[#   8]
          
    |psi|^2 = 0.059
==== e(  28) =     4.82043 eV ==== 
     psi = 0.011*[#   7]+0.001*[#  11]
    |psi|^2 = 0.012
==== e(  29) =     4.85542 eV ==== 
     psi = 0.007*[#   6]+0.001*[#   5]+0.001*[#  10]
    |psi|^2 = 0.011
==== e(  30) =     5.12712 eV ==== 
     psi = 0.009*[#   8]+0.004*[#   6]
    |psi|^2 = 0.015
==== e(  31) =     5.32461 eV ==== 
     psi = 0.004*[#   7]
    |psi|^2 = 0.004
==== e(  32) =     5.38810 eV ==== 
     psi = 0.004*[#   6]+0.001*[#   8]
    |psi|^2 = 0.007
==== e(  33) =     5.67709 eV ==== 
     psi = 0.001*[#   8]
    |psi|^2 = 0.002

 k =   0.0000000000 -0.2500000000 -0.3500000000
==== e(   1) =   -80.59617 eV ==== 
     psi = 0.998*[#   1]+0.002*[#  10]
    |psi|^2 = 1.000
==== e(   2) =   -47.55691 eV ==== 
     psi = 0.990*[#   3]+0.010*[#   7]
    |psi|^2 = 1.000
==== e(   3) =   -47.55691 eV ==== 
     psi = 0.990*[#   4]+0.010*[#   8]
    |psi|^2 = 1.000
==== e(   4) =   -47.51831 eV ==== 
     psi = 0.986*[#   2]+0.011*[#   6]+0.002*[#  10]
    |psi|^2 = 1.000
==== e(   5) =   -14.12232 eV ==== 
     psi = 0.882*[#   9]+0.063*[#   6]+0.051*[#   5]+0.002*[#  10]
    |psi|^2 = 0.998
==== e(   6) =    -5.85901 eV ==== 
     psi = 0.574*[#  10]+0.380*[#   5]+0.036*[#   9]
    |psi|^2 = 0.992
==== e(   7) =    -4.05234 eV ==== 
     psi = 0.895*[#  12]+0.095*[#   8]
    |psi|^2 = 0.991
==== e(   8) =    -4.03614 eV ==== 
     psi = 0.902*[#  11]+0.090*[#   7]
    |psi|^2 = 0.992
==== e(   9) =    -3.69737 eV ==== 
     psi = 0.427*[#   5]+0.289*[#   6]+0.264*[#  10]+0.001*[#   2]+0.001*[#  12]
          
    |psi|^2 = 0.983
==== e(  10) =    -0.86605 eV ==== 
     psi = 0.637*[#   8]+0.073*[#  12]+0.007*[#   4]+0.002*[#   6]
    |psi|^2 = 0.719
==== e(  11) =    -0.53886 eV ==== 
     psi = 0.747*[#   7]+0.076*[#  11]+0.008*[#   3]
    |psi|^2 = 0.832
==== e(  12) =     0.16843 eV ==== 
     psi = 0.171*[#   6]+0.060*[#   5]+0.046*[#  10]+0.024*[#   9]+0.003*[#   2]
          +0.002*[#   8]
    |psi|^2 = 0.307
==== e(  13) =     0.71737 eV ==== 
     psi = 0.052*[#   6]+0.052*[#   8]+0.005*[#   5]+0.004*[#  12]+0.004*[#   9]
          +0.001*[#  10]
    |psi|^2 = 0.119
==== e(  14) =     1.63514 eV ==== 
     psi = 0.049*[#   8]+0.028*[#   6]+0.012*[#  10]+0.009*[#   5]+0.007*[#  12]
          +0.004*[#   9]
    |psi|^2 = 0.112
==== e(  15) =     1.72876 eV ==== 
     psi = 0.025*[#   8]+0.014*[#   6]+0.006*[#  10]+0.004*[#   5]+0.002*[#   9]
          
    |psi|^2 = 0.052
==== e(  16) =     2.25928 eV ==== 
     psi = 0.036*[#   6]+0.012*[#   5]+0.011*[#  10]+0.008*[#   8]+0.004*[#   9]
          +0.002*[#  12]
    |psi|^2 = 0.074
==== e(  17) =     2.46945 eV ==== 
     psi = 0.009*[#   7]
    |psi|^2 = 0.010
==== e(  18) =     2.69596 eV ==== 
     psi = 0.015*[#   6]+0.005*[#   8]+0.005*[#   5]+0.002*[#   9]
    |psi|^2 = 0.027
==== e(  19) =     3.02428 eV ==== 
     psi = 0.003*[#   6]
    |psi|^2 = 0.004
==== e(  20) =     3.04025 eV ==== 
     psi = 0.039*[#   7]+0.009*[#  11]
    |psi|^2 = 0.049
==== e(  21) =     3.28508 eV ==== 
     psi = 0.033*[#   6]+0.010*[#  10]+0.009*[#   5]+0.005*[#   9]+0.002*[#   8]
          
    |psi|^2 = 0.060
==== e(  22) =     3.39973 eV ==== 
     psi = 0.009*[#   8]+0.004*[#   6]+0.003*[#  12]
    |psi|^2 = 0.018
==== e(  23) =     3.83296 eV ==== 
     psi = 0.011*[#   7]+0.003*[#  11]
    |psi|^2 = 0.014
==== e(  24) =     4.14154 eV ==== 
     psi = 0.047*[#   6]+0.014*[#  10]+0.008*[#   5]+0.007*[#   9]+0.004*[#   8]
          
    |psi|^2 = 0.081
==== e(  25) =     4.22527 eV ==== 
     psi = 0.001*[#   6]+0.001*[#  10]+0.001*[#  12]
    |psi|^2 = 0.004
==== e(  26) =     4.32233 eV ==== 
 
    |psi|^2 = 0.000
==== e(  27) =     4.62294 eV ==== 
     psi = 0.024*[#   6]+0.005*[#  10]+0.004*[#   5]+0.003*[#   8]+0.003*[#   9]
          +0.001*[#  12]
    |psi|^2 = 0.041
==== e(  28) =     4.67057 eV ==== 
     psi = 0.005*[#   7]
    |psi|^2 = 0.005
==== e(  29) =     4.98829 eV ==== 
     psi = 0.028*[#   6]+0.005*[#  10]+0.004*[#   5]+0.003*[#   9]
    |psi|^2 = 0.041
==== e(  30) =     5.14325 eV ==== 
     psi = 0.018*[#   8]+0.005*[#   6]+0.002*[#  12]
    |psi|^2 = 0.027
==== e(  31) =     5.46099 eV ==== 
     psi = 0.010*[#   6]+0.004*[#   8]+0.002*[#  10]+0.002*[#   9]+0.001*[#   5]
          
    |psi|^2 = 0.020
==== e(  32) =     5.59414 eV ==== 
 
    |psi|^2 = 0.001
==== e(  33) =     5.82440 eV ==== 
     psi = 0.005*[#   6]+0.005*[#  10]+0.002*[#   8]+0.001*[#   9]
    |psi|^2 = 0.016

 k =   0.0000000000 -0.2500000000 -0.1750000000
==== e(   1) =   -80.59617 eV ==== 
     psi = 0.998*[#   1]+0.002*[#  10]
    |psi|^2 = 1.000
==== e(   2) =   -47.55691 eV ==== 
     psi = 0.990*[#   3]+0.010*[#   7]
    |psi|^2 = 1.000
==== e(   3) =   -47.55691 eV ==== 
     psi = 0.990*[#   4]+0.010*[#   8]
    |psi|^2 = 1.000
==== e(   4) =   -47.51831 eV ==== 
     psi = 0.986*[#   2]+0.011*[#   6]+0.002*[#  10]
    |psi|^2 = 1.000
==== e(   5) =   -14.12232 eV ==== 
     psi = 0.882*[#   9]+0.063*[#   6]+0.051*[#   5]+0.002*[#  10]
    |psi|^2 = 0.998
==== e(   6) =    -5.85798 eV ==== 
     psi = 0.575*[#  10]+0.380*[#   5]+0.036*[#   9]
    |psi|^2 = 0.992
==== e(   7) =    -4.05249 eV ==== 
     psi = 0.895*[#  12]+0.095*[#   8]
    |psi|^2 = 0.991
==== e(   8) =    -4.03622 eV ==== 
     psi = 0.902*[#  11]+0.090*[#   7]
    |psi|^2 = 0.992
==== e(   9) =    -3.70356 eV ==== 
     psi = 0.427*[#   5]+0.288*[#   6]+0.264*[#  10]+0.001*[#  12]+0.001*[#   2]
          
    |psi|^2 = 0.982
==== e(  10) =    -0.86314 eV ==== 
     psi = 0.636*[#   8]+0.074*[#  12]+0.007*[#   4]+0.002*[#   6]
    |psi|^2 = 0.719
==== e(  11) =    -0.53609 eV ==== 
     psi = 0.748*[#   7]+0.077*[#  11]+0.008*[#   3]
    |psi|^2 = 0.833
==== e(  12) =     0.27858 eV ==== 
     psi = 0.164*[#   6]+0.057*[#   5]+0.044*[#  10]+0.022*[#   9]+0.006*[#   8]
          +0.003*[#   2]
    |psi|^2 = 0.297
==== e(  13) =     0.66897 eV ==== 
     psi = 0.072*[#   6]+0.048*[#   8]+0.014*[#   5]+0.009*[#  10]+0.007*[#   9]
          +0.004*[#  12]+0.001*[#   2]
    |psi|^2 = 0.154
==== e(  14) =     1.55720 eV ==== 
     psi = 0.041*[#   8]+0.012*[#   6]+0.005*[#  10]+0.005*[#   5]+0.003*[#  12]
          +0.002*[#   9]
    |psi|^2 = 0.069
==== e(  15) =     1.81243 eV ==== 
     psi = 0.038*[#   8]+0.021*[#   6]+0.010*[#  10]+0.008*[#   5]+0.005*[#  12]
          +0.003*[#   9]
    |psi|^2 = 0.086
==== e(  16) =     2.04483 eV ==== 
     psi = 0.024*[#   6]+0.006*[#   5]+0.006*[#  10]+0.004*[#   9]+0.001*[#  12]
          
    |psi|^2 = 0.041
==== e(  17) =     2.44187 eV ==== 
     psi = 0.011*[#   7]
    |psi|^2 = 0.012
==== e(  18) =     2.70581 eV ==== 
     psi = 0.049*[#   6]+0.009*[#   5]+0.008*[#  10]+0.006*[#   9]+0.003*[#   8]
          
    |psi|^2 = 0.077
==== e(  19) =     2.88567 eV ==== 
     psi = 0.010*[#   6]+0.008*[#  10]+0.003*[#   8]+0.002*[#   5]+0.002*[#   9]
          
    |psi|^2 = 0.026
==== e(  20) =     2.99252 eV ==== 
     psi = 0.035*[#   7]+0.008*[#  11]
    |psi|^2 = 0.043
==== e(  21) =     3.24418 eV ==== 
     psi = 0.008*[#   8]+0.002*[#  12]+0.001*[#   6]
    |psi|^2 = 0.013
==== e(  22) =     3.74928 eV ==== 
     psi = 0.004*[#   8]+0.004*[#   6]+0.002*[#   5]+0.002*[#  10]+0.001*[#  12]
          
    |psi|^2 = 0.014
==== e(  23) =     3.92686 eV ==== 
     psi = 0.007*[#   7]+0.003*[#  11]
    |psi|^2 = 0.010
==== e(  24) =     4.16170 eV ==== 
     psi = 0.027*[#   6]+0.008*[#   8]+0.006*[#  10]+0.005*[#   5]+0.003*[#   9]
          +0.002*[#  12]
    |psi|^2 = 0.052
==== e(  25) =     4.32120 eV ==== 
     psi = 0.012*[#   6]+0.005*[#   8]+0.004*[#  10]+0.003*[#   5]+0.002*[#  12]
          +0.002*[#   9]
    |psi|^2 = 0.027
==== e(  26) =     4.41288 eV ==== 
     psi = 0.001*[#  11]
    |psi|^2 = 0.001
==== e(  27) =     4.59016 eV ==== 
     psi = 0.037*[#   6]+0.008*[#  10]+0.005*[#   5]+0.005*[#   9]+0.003*[#   8]
          
    |psi|^2 = 0.059
==== e(  28) =     4.82043 eV ==== 
     psi = 0.011*[#   7]+0.001*[#  11]
    |psi|^2 = 0.012
==== e(  29) =     4.85542 eV ==== 
     psi = 0.007*[#   6]+0.001*[#   5]+0.001*[#  10]
    |psi|^2 = 0.011
==== e(  30) =     5.12712 eV ==== 
     psi = 0.009*[#   8]+0.004*[#   6]
    |psi|^2 = 0.015
==== e(  31) =     5.32461 eV ==== 
     psi = 0.004*[#   7]
    |psi|^2 = 0.004
==== e(  32) =     5.38810 eV ==== 
     psi = 0.004*[#   6]+0.001*[#   8]
    |psi|^2 = 0.007
==== e(  33) =     5.67709 eV ==== 
     psi = 0.001*[#   8]
    |psi|^2 = 0.002

 k =   0.2500000000  0.0000000000  0.0000000000
==== e(   1) =   -80.59617 eV ==== 
     psi = 0.998*[#   1]+0.002*[#  10]
    |psi|^2 = 1.000
==== e(   2) =   -47.55691 eV ==== 
     psi = 0.990*[#   4]+0.010*[#   8]
    |psi|^2 = 1.000
==== e(   3) =   -47.55691 eV ==== 
     psi = 0.990*[#   3]+0.010*[#   7]
    |psi|^2 = 1.000
==== e(   4) =   -47.51831 eV ==== 
     psi = 0.986*[#   2]+0.011*[#   6]+0.002*[#  10]
    |psi|^2 = 1.000
==== e(   5) =   -14.12232 eV ==== 
     psi = 0.882*[#   9]+0.063*[#   6]+0.051*[#   5]+0.002*[#  10]
    |psi|^2 = 0.998
==== e(   6) =    -5.85694 eV ==== 
     psi = 0.575*[#  10]+0.380*[#   5]+0.036*[#   9]
    |psi|^2 = 0.992
==== e(   7) =    -4.05265 eV ==== 
     psi = 0.894*[#  11]+0.095*[#   7]
    |psi|^2 = 0.991
==== e(   8) =    -4.03631 eV ==== 
     psi = 0.902*[#  12]+0.090*[#   8]
    |psi|^2 = 0.992
==== e(   9) =    -3.70972 eV ==== 
     psi = 0.428*[#   5]+0.288*[#   6]+0.263*[#  10]+0.001*[#  11]+0.001*[#   2]
          
    |psi|^2 = 0.981
==== e(  10) =    -0.86022 eV ==== 
     psi = 0.635*[#   7]+0.074*[#  11]+0.007*[#   3]+0.003*[#   6]
    |psi|^2 = 0.719
==== e(  11) =    -0.53332 eV ==== 
     psi = 0.749*[#   8]+0.077*[#  12]+0.008*[#   4]
    |psi|^2 = 0.834
==== e(  12) =     0.50900 eV ==== 
     psi = 0.204*[#   6]+0.076*[#   5]+0.059*[#  10]+0.027*[#   9]+0.004*[#   2]
          
    |psi|^2 = 0.371
==== e(  13) =     0.51533 eV ==== 
     psi = 0.052*[#   6]+0.052*[#   7]+0.004*[#   9]+0.004*[#  11]+0.003*[#   5]
          
    |psi|^2 = 0.116
==== e(  14) =     1.49893 eV ==== 
     psi = 0.020*[#   7]+0.005*[#   6]+0.003*[#  10]+0.002*[#   5]+0.001*[#   9]
          +0.001*[#  11]
    |psi|^2 = 0.033
==== e(  15) =     1.67245 eV ==== 
     psi = 0.060*[#   7]+0.007*[#   6]+0.006*[#  11]+0.001*[#   5]+0.002*[#   9]
          +0.002*[#  10]
    |psi|^2 = 0.078
==== e(  16) =     2.15258 eV ==== 
     psi = 0.012*[#   6]+0.007*[#  10]+0.004*[#   5]+0.002*[#   9]+0.001*[#  11]
          
    |psi|^2 = 0.026
==== e(  17) =     2.41595 eV ==== 
     psi = 0.012*[#   8]+0.001*[#  12]
    |psi|^2 = 0.014
==== e(  18) =     2.49555 eV ==== 
     psi = 0.066*[#   6]+0.012*[#  10]+0.011*[#   5]+0.008*[#   9]+0.001*[#   2]
          
    |psi|^2 = 0.100
==== e(  19) =     2.94780 eV ==== 
     psi = 0.031*[#   8]+0.007*[#  12]
    |psi|^2 = 0.038
==== e(  20) =     3.07406 eV ==== 
     psi = 0.021*[#   6]+0.012*[#  10]+0.004*[#   5]+0.004*[#   7]+0.003*[#   9]
          +0.001*[#  11]
    |psi|^2 = 0.045
==== e(  21) =     3.14214 eV ==== 
     psi = 0.011*[#   7]+0.002*[#  11]
    |psi|^2 = 0.014
==== e(  22) =     3.75238 eV ==== 
     psi = 0.022*[#   6]+0.005*[#  10]+0.003*[#   7]+0.003*[#   9]+0.003*[#   5]
          
    |psi|^2 = 0.036
==== e(  23) =     4.08053 eV ==== 
     psi = 0.004*[#   8]+0.003*[#  12]
    |psi|^2 = 0.006
==== e(  24) =     4.09602 eV ==== 
     psi = 0.018*[#   7]+0.005*[#  11]
    |psi|^2 = 0.024
==== e(  25) =     4.43831 eV ==== 
     psi = 0.002*[#   7]
    |psi|^2 = 0.004
==== e(  26) =     4.44197 eV ==== 
 
    |psi|^2 = 0.001
==== e(  27) =     4.74128 eV ==== 
     psi = 0.026*[#   6]+0.007*[#   5]+0.004*[#  10]+0.002*[#   9]
    |psi|^2 = 0.040
==== e(  28) =     4.93860 eV ==== 
     psi = 0.012*[#   8]
    |psi|^2 = 0.013
==== e(  29) =     5.04459 eV ==== 
     psi = 0.003*[#   7]+0.001*[#   6]
    |psi|^2 = 0.005
==== e(  30) =     5.15051 eV ==== 
     psi = 0.011*[#   8]+0.002*[#  12]
    |psi|^2 = 0.013
==== e(  31) =     5.27121 eV ==== 
     psi = 0.004*[#   6]+0.002*[#   5]+0.002*[#  10]
    |psi|^2 = 0.010
==== e(  32) =     5.53071 eV ==== 
     psi = 0.011*[#   6]+0.002*[#   5]+0.002*[#   7]+0.001*[#   9]
    |psi|^2 = 0.017
==== e(  33) =     5.59617 eV ==== 
     psi = 0.009*[#   7]+0.002*[#   6]
    |psi|^2 = 0.013

 k =   0.2500000000  0.0000000000  0.1750000000
==== e(   1) =   -80.59617 eV ==== 
     psi = 0.998*[#   1]+0.002*[#  10]
    |psi|^2 = 1.000
==== e(   2) =   -47.55691 eV ==== 
     psi = 0.990*[#   4]+0.010*[#   8]
    |psi|^2 = 1.000
==== e(   3) =   -47.55691 eV ==== 
     psi = 0.990*[#   3]+0.010*[#   7]
    |psi|^2 = 1.000
==== e(   4) =   -47.51831 eV ==== 
     psi = 0.986*[#   2]+0.011*[#   6]+0.002*[#  10]
    |psi|^2 = 1.000
==== e(   5) =   -14.12232 eV ==== 
     psi = 0.882*[#   9]+0.063*[#   6]+0.051*[#   5]+0.002*[#  10]
    |psi|^2 = 0.998
==== e(   6) =    -5.85798 eV ==== 
     psi = 0.575*[#  10]+0.380*[#   5]+0.036*[#   9]
    |psi|^2 = 0.992
==== e(   7) =    -4.05249 eV ==== 
     psi = 0.895*[#  11]+0.095*[#   7]
    |psi|^2 = 0.991
==== e(   8) =    -4.03622 eV ==== 
     psi = 0.902*[#  12]+0.090*[#   8]
    |psi|^2 = 0.992
==== e(   9) =    -3.70356 eV ==== 
     psi = 0.427*[#   5]+0.288*[#   6]+0.264*[#  10]+0.001*[#  11]+0.001*[#   2]
          
    |psi|^2 = 0.982
==== e(  10) =    -0.86314 eV ==== 
     psi = 0.636*[#   7]+0.074*[#  11]+0.007*[#   3]+0.002*[#   6]
    |psi|^2 = 0.719
==== e(  11) =    -0.53609 eV ==== 
     psi = 0.748*[#   8]+0.077*[#  12]+0.008*[#   4]
    |psi|^2 = 0.833
==== e(  12) =     0.27858 eV ==== 
     psi = 0.164*[#   6]+0.057*[#   5]+0.044*[#  10]+0.022*[#   9]+0.006*[#   7]
          +0.003*[#   2]
    |psi|^2 = 0.297
==== e(  13) =     0.66897 eV ==== 
     psi = 0.072*[#   6]+0.048*[#   7]+0.014*[#   5]+0.009*[#  10]+0.007*[#   9]
          +0.004*[#  11]+0.001*[#   2]
    |psi|^2 = 0.154
==== e(  14) =     1.55720 eV ==== 
     psi = 0.041*[#   7]+0.012*[#   6]+0.005*[#  10]+0.005*[#   5]+0.003*[#  11]
          +0.002*[#   9]
    |psi|^2 = 0.069
==== e(  15) =     1.81243 eV ==== 
     psi = 0.038*[#   7]+0.021*[#   6]+0.010*[#  10]+0.008*[#   5]+0.005*[#  11]
          +0.003*[#   9]
    |psi|^2 = 0.086
==== e(  16) =     2.04483 eV ==== 
     psi = 0.024*[#   6]+0.006*[#   5]+0.006*[#  10]+0.004*[#   9]+0.001*[#  11]
          
    |psi|^2 = 0.041
==== e(  17) =     2.44187 eV ==== 
     psi = 0.011*[#   8]
    |psi|^2 = 0.012
==== e(  18) =     2.70581 eV ==== 
     psi = 0.049*[#   6]+0.009*[#   5]+0.008*[#  10]+0.006*[#   9]+0.003*[#   7]
          
    |psi|^2 = 0.077
==== e(  19) =     2.88567 eV ==== 
     psi = 0.010*[#   6]+0.008*[#  10]+0.003*[#   7]+0.002*[#   5]+0.002*[#   9]
          
    |psi|^2 = 0.026
==== e(  20) =     2.99252 eV ==== 
     psi = 0.035*[#   8]+0.008*[#  12]
    |psi|^2 = 0.043
==== e(  21) =     3.24418 eV ==== 
     psi = 0.008*[#   7]+0.002*[#  11]+0.001*[#   6]
    |psi|^2 = 0.013
==== e(  22) =     3.74928 eV ==== 
     psi = 0.004*[#   7]+0.004*[#   6]+0.002*[#   5]+0.002*[#  10]+0.001*[#  11]
          
    |psi|^2 = 0.014
==== e(  23) =     3.92686 eV ==== 
     psi = 0.007*[#   8]+0.003*[#  12]
    |psi|^2 = 0.010
==== e(  24) =     4.16170 eV ==== 
     psi = 0.027*[#   6]+0.008*[#   7]+0.006*[#  10]+0.005*[#   5]+0.003*[#   9]
          +0.002*[#  11]
    |psi|^2 = 0.052
==== e(  25) =     4.32120 eV ==== 
     psi = 0.012*[#   6]+0.005*[#   7]+0.004*[#  10]+0.003*[#   5]+0.002*[#  11]
          +0.002*[#   9]
    |psi|^2 = 0.027
==== e(  26) =     4.41288 eV ==== 
     psi = 0.001*[#  12]
    |psi|^2 = 0.001
==== e(  27) =     4.59016 eV ==== 
     psi = 0.037*[#   6]+0.008*[#  10]+0.005*[#   5]+0.005*[#   9]+0.003*[#   7]
          
    |psi|^2 = 0.059
==== e(  28) =     4.82043 eV ==== 
     psi = 0.011*[#   8]+0.001*[#  12]
    |psi|^2 = 0.012
==== e(  29) =     4.85542 eV ==== 
     psi = 0.007*[#   6]+0.001*[#   5]+0.001*[#  10]
    |psi|^2 = 0.011
==== e(  30) =     5.12712 eV ==== 
     psi = 0.009*[#   7]+0.004*[#   6]
    |psi|^2 = 0.015
==== e(  31) =     5.32461 eV ==== 
     psi = 0.004*[#   8]
    |psi|^2 = 0.004
==== e(  32) =     5.38810 eV ==== 
     psi = 0.004*[#   6]+0.001*[#   7]
    |psi|^2 = 0.007
==== e(  33) =     5.67709 eV ==== 
     psi = 0.001*[#   7]
    |psi|^2 = 0.002

 k =   0.2500000000  0.0000000000 -0.3500000000
==== e(   1) =   -80.59617 eV ==== 
     psi = 0.998*[#   1]+0.002*[#  10]
    |psi|^2 = 1.000
==== e(   2) =   -47.55691 eV ==== 
     psi = 0.990*[#   4]+0.010*[#   8]
    |psi|^2 = 1.000
==== e(   3) =   -47.55691 eV ==== 
     psi = 0.990*[#   3]+0.010*[#   7]
    |psi|^2 = 1.000
==== e(   4) =   -47.51831 eV ==== 
     psi = 0.986*[#   2]+0.011*[#   6]+0.002*[#  10]
    |psi|^2 = 1.000
==== e(   5) =   -14.12232 eV ==== 
     psi = 0.882*[#   9]+0.063*[#   6]+0.051*[#   5]+0.002*[#  10]
    |psi|^2 = 0.998
==== e(   6) =    -5.85901 eV ==== 
     psi = 0.574*[#  10]+0.380*[#   5]+0.036*[#   9]
    |psi|^2 = 0.992
==== e(   7) =    -4.05234 eV ==== 
     psi = 0.895*[#  11]+0.095*[#   7]
    |psi|^2 = 0.991
==== e(   8) =    -4.03614 eV ==== 
     psi = 0.902*[#  12]+0.090*[#   8]
    |psi|^2 = 0.992
==== e(   9) =    -3.69737 eV ==== 
     psi = 0.427*[#   5]+0.289*[#   6]+0.264*[#  10]+0.001*[#   2]+0.001*[#  11]
          
    |psi|^2 = 0.983
==== e(  10) =    -0.86605 eV ==== 
     psi = 0.637*[#   7]+0.073*[#  11]+0.007*[#   3]+0.002*[#   6]
    |psi|^2 = 0.719
==== e(  11) =    -0.53886 eV ==== 
     psi = 0.747*[#   8]+0.076*[#  12]+0.008*[#   4]
    |psi|^2 = 0.832
==== e(  12) =     0.16843 eV ==== 
     psi = 0.171*[#   6]+0.060*[#   5]+0.046*[#  10]+0.024*[#   9]+0.003*[#   2]
          +0.002*[#   7]
    |psi|^2 = 0.307
==== e(  13) =     0.71737 eV ==== 
     psi = 0.052*[#   6]+0.052*[#   7]+0.005*[#   5]+0.004*[#  11]+0.004*[#   9]
          +0.001*[#  10]
    |psi|^2 = 0.119
==== e(  14) =     1.63514 eV ==== 
     psi = 0.049*[#   7]+0.028*[#   6]+0.012*[#  10]+0.009*[#   5]+0.007*[#  11]
          +0.004*[#   9]
    |psi|^2 = 0.112
==== e(  15) =     1.72876 eV ==== 
     psi = 0.025*[#   7]+0.014*[#   6]+0.006*[#  10]+0.004*[#   5]+0.002*[#   9]
          
    |psi|^2 = 0.052
==== e(  16) =     2.25928 eV ==== 
     psi = 0.036*[#   6]+0.012*[#   5]+0.011*[#  10]+0.008*[#   7]+0.004*[#   9]
          +0.002*[#  11]
    |psi|^2 = 0.074
==== e(  17) =     2.46945 eV ==== 
     psi = 0.009*[#   8]
    |psi|^2 = 0.010
==== e(  18) =     2.69596 eV ==== 
     psi = 0.015*[#   6]+0.005*[#   7]+0.005*[#   5]+0.002*[#   9]
    |psi|^2 = 0.027
==== e(  19) =     3.02428 eV ==== 
     psi = 0.003*[#   6]
    |psi|^2 = 0.004
==== e(  20) =     3.04025 eV ==== 
     psi = 0.039*[#   8]+0.009*[#  12]
    |psi|^2 = 0.049
==== e(  21) =     3.28508 eV ==== 
     psi = 0.033*[#   6]+0.010*[#  10]+0.009*[#   5]+0.005*[#   9]+0.002*[#   7]
          
    |psi|^2 = 0.060
==== e(  22) =     3.39973 eV ==== 
     psi = 0.009*[#   7]+0.004*[#   6]+0.003*[#  11]
    |psi|^2 = 0.018
==== e(  23) =     3.83296 eV ==== 
     psi = 0.011*[#   8]+0.003*[#  12]
    |psi|^2 = 0.014
==== e(  24) =     4.14154 eV ==== 
     psi = 0.047*[#   6]+0.014*[#  10]+0.008*[#   5]+0.007*[#   9]+0.004*[#   7]
          
    |psi|^2 = 0.081
==== e(  25) =     4.22527 eV ==== 
     psi = 0.001*[#   6]+0.001*[#  10]+0.001*[#  11]
    |psi|^2 = 0.004
==== e(  26) =     4.32233 eV ==== 
 
    |psi|^2 = 0.000
==== e(  27) =     4.62294 eV ==== 
     psi = 0.024*[#   6]+0.005*[#  10]+0.004*[#   5]+0.003*[#   7]+0.003*[#   9]
          +0.001*[#  11]
    |psi|^2 = 0.041
==== e(  28) =     4.67057 eV ==== 
     psi = 0.005*[#   8]
    |psi|^2 = 0.005
==== e(  29) =     4.98829 eV ==== 
     psi = 0.028*[#   6]+0.005*[#  10]+0.004*[#   5]+0.003*[#   9]
    |psi|^2 = 0.041
==== e(  30) =     5.14325 eV ==== 
     psi = 0.018*[#   7]+0.005*[#   6]+0.002*[#  11]
    |psi|^2 = 0.027
==== e(  31) =     5.46099 eV ==== 
     psi = 0.010*[#   6]+0.004*[#   7]+0.002*[#  10]+0.002*[#   9]+0.001*[#   5]
          
    |psi|^2 = 0.020
==== e(  32) =     5.59414 eV ==== 
 
    |psi|^2 = 0.001
==== e(  33) =     5.82440 eV ==== 
     psi = 0.005*[#   6]+0.005*[#  10]+0.002*[#   7]+0.001*[#   9]
    |psi|^2 = 0.016

 k =   0.2500000000  0.0000000000 -0.1750000000
==== e(   1) =   -80.59617 eV ==== 
     psi = 0.998*[#   1]+0.002*[#  10]
    |psi|^2 = 1.000
==== e(   2) =   -47.55691 eV ==== 
     psi = 0.990*[#   4]+0.010*[#   8]
    |psi|^2 = 1.000
==== e(   3) =   -47.55691 eV ==== 
     psi = 0.990*[#   3]+0.010*[#   7]
    |psi|^2 = 1.000
==== e(   4) =   -47.51831 eV ==== 
     psi = 0.986*[#   2]+0.011*[#   6]+0.002*[#  10]
    |psi|^2 = 1.000
==== e(   5) =   -14.12232 eV ==== 
     psi = 0.882*[#   9]+0.063*[#   6]+0.051*[#   5]+0.002*[#  10]
    |psi|^2 = 0.998
==== e(   6) =    -5.85798 eV ==== 
     psi = 0.575*[#  10]+0.380*[#   5]+0.036*[#   9]
    |psi|^2 = 0.992
==== e(   7) =    -4.05249 eV ==== 
     psi = 0.895*[#  11]+0.095*[#   7]
    |psi|^2 = 0.991
==== e(   8) =    -4.03622 eV ==== 
     psi = 0.902*[#  12]+0.090*[#   8]
    |psi|^2 = 0.992
==== e(   9) =    -3.70356 eV ==== 
     psi = 0.427*[#   5]+0.288*[#   6]+0.264*[#  10]+0.001*[#  11]+0.001*[#   2]
          
    |psi|^2 = 0.982
==== e(  10) =    -0.86314 eV ==== 
     psi = 0.636*[#   7]+0.074*[#  11]+0.007*[#   3]+0.002*[#   6]
    |psi|^2 = 0.719
==== e(  11) =    -0.53609 eV ==== 
     psi = 0.748*[#   8]+0.077*[#  12]+0.008*[#   4]
    |psi|^2 = 0.833
==== e(  12) =     0.27858 eV ==== 
     psi = 0.164*[#   6]+0.057*[#   5]+0.044*[#  10]+0.022*[#   9]+0.006*[#   7]
          +0.003*[#   2]
    |psi|^2 = 0.297
==== e(  13) =     0.66897 eV ==== 
     psi = 0.072*[#   6]+0.048*[#   7]+0.014*[#   5]+0.009*[#  10]+0.007*[#   9]
          +0.004*[#  11]+0.001*[#   2]
    |psi|^2 = 0.154
==== e(  14) =     1.55720 eV ==== 
     psi = 0.041*[#   7]+0.012*[#   6]+0.005*[#  10]+0.005*[#   5]+0.003*[#  11]
          +0.002*[#   9]
    |psi|^2 = 0.069
==== e(  15) =     1.81243 eV ==== 
     psi = 0.038*[#   7]+0.021*[#   6]+0.010*[#  10]+0.008*[#   5]+0.005*[#  11]
          +0.003*[#   9]
    |psi|^2 = 0.086
==== e(  16) =     2.04483 eV ==== 
     psi = 0.024*[#   6]+0.006*[#   5]+0.006*[#  10]+0.004*[#   9]+0.001*[#  11]
          
    |psi|^2 = 0.041
==== e(  17) =     2.44187 eV ==== 
     psi = 0.011*[#   8]
    |psi|^2 = 0.012
==== e(  18) =     2.70581 eV ==== 
     psi = 0.049*[#   6]+0.009*[#   5]+0.008*[#  10]+0.006*[#   9]+0.003*[#   7]
          
    |psi|^2 = 0.077
==== e(  19) =     2.88567 eV ==== 
     psi = 0.010*[#   6]+0.008*[#  10]+0.003*[#   7]+0.002*[#   5]+0.002*[#   9]
          
    |psi|^2 = 0.026
==== e(  20) =     2.99252 eV ==== 
     psi = 0.035*[#   8]+0.008*[#  12]
    |psi|^2 = 0.043
==== e(  21) =     3.24418 eV ==== 
     psi = 0.008*[#   7]+0.002*[#  11]+0.001*[#   6]
    |psi|^2 = 0.013
==== e(  22) =     3.74928 eV ==== 
     psi = 0.004*[#   7]+0.004*[#   6]+0.002*[#   5]+0.002*[#  10]+0.001*[#  11]
          
    |psi|^2 = 0.014
==== e(  23) =     3.92686 eV ==== 
     psi = 0.007*[#   8]+0.003*[#  12]
    |psi|^2 = 0.010
==== e(  24) =     4.16170 eV ==== 
     psi = 0.027*[#   6]+0.008*[#   7]+0.006*[#  10]+0.005*[#   5]+0.003*[#   9]
          +0.002*[#  11]
    |psi|^2 = 0.052
==== e(  25) =     4.32120 eV ==== 
     psi = 0.012*[#   6]+0.005*[#   7]+0.004*[#  10]+0.003*[#   5]+0.002*[#  11]
          +0.002*[#   9]
    |psi|^2 = 0.027
==== e(  26) =     4.41288 eV ==== 
     psi = 0.001*[#  12]
    |psi|^2 = 0.001
==== e(  27) =     4.59016 eV ==== 
     psi = 0.037*[#   6]+0.008*[#  10]+0.005*[#   5]+0.005*[#   9]+0.003*[#   7]
          
    |psi|^2 = 0.059
==== e(  28) =     4.82043 eV ==== 
     psi = 0.011*[#   8]+0.001*[#  12]
    |psi|^2 = 0.012
==== e(  29) =     4.85542 eV ==== 
     psi = 0.007*[#   6]+0.001*[#   5]+0.001*[#  10]
    |psi|^2 = 0.011
==== e(  30) =     5.12712 eV ==== 
     psi = 0.009*[#   7]+0.004*[#   6]
    |psi|^2 = 0.015
==== e(  31) =     5.32461 eV ==== 
     psi = 0.004*[#   8]
    |psi|^2 = 0.004
==== e(  32) =     5.38810 eV ==== 
     psi = 0.004*[#   6]+0.001*[#   7]
    |psi|^2 = 0.007
==== e(  33) =     5.67709 eV ==== 
     psi = 0.001*[#   7]
    |psi|^2 = 0.002

 k =   0.2500000000  0.2500000000  0.0000000000
==== e(   1) =   -80.59617 eV ==== 
     psi = 0.998*[#   1]+0.002*[#  10]
    |psi|^2 = 1.000
==== e(   2) =   -47.55691 eV ==== 
     psi = 0.495*[#   3]+0.495*[#   4]+0.005*[#   7]+0.005*[#   8]
    |psi|^2 = 1.000
==== e(   3) =   -47.55691 eV ==== 
     psi = 0.495*[#   3]+0.495*[#   4]+0.005*[#   7]+0.005*[#   8]
    |psi|^2 = 1.000
==== e(   4) =   -47.51831 eV ==== 
     psi = 0.986*[#   2]+0.011*[#   6]+0.002*[#  10]
    |psi|^2 = 1.000
==== e(   5) =   -14.12225 eV ==== 
     psi = 0.882*[#   9]+0.063*[#   6]+0.051*[#   5]+0.002*[#  10]
    |psi|^2 = 0.998
==== e(   6) =    -5.85326 eV ==== 
     psi = 0.577*[#  10]+0.377*[#   5]+0.036*[#   9]
    |psi|^2 = 0.992
==== e(   7) =    -4.05164 eV ==== 
     psi = 0.447*[#  11]+0.447*[#  12]+0.047*[#   7]+0.047*[#   8]
    |psi|^2 = 0.991
==== e(   8) =    -4.05027 eV ==== 
     psi = 0.448*[#  11]+0.448*[#  12]+0.047*[#   7]+0.047*[#   8]
    |psi|^2 = 0.991
==== e(   9) =    -3.69182 eV ==== 
     psi = 0.429*[#   5]+0.290*[#   6]+0.260*[#  10]+0.001*[#   2]+0.001*[#  11]
          +0.001*[#  12]
    |psi|^2 = 0.983
==== e(  10) =    -0.84318 eV ==== 
     psi = 0.317*[#   7]+0.317*[#   8]+0.037*[#  11]+0.037*[#  12]+0.004*[#   3]
          +0.004*[#   4]+0.004*[#   6]
    |psi|^2 = 0.718
==== e(  11) =    -0.77895 eV ==== 
     psi = 0.342*[#   7]+0.342*[#   8]+0.038*[#  11]+0.038*[#  12]+0.004*[#   3]
          +0.004*[#   4]
    |psi|^2 = 0.769
==== e(  12) =     0.62527 eV ==== 
     psi = 0.168*[#   6]+0.069*[#   5]+0.057*[#  10]+0.023*[#   9]+0.004*[#   2]
          +0.002*[#   7]+0.002*[#   8]
    |psi|^2 = 0.327
==== e(  13) =     0.79406 eV ==== 
     psi = 0.094*[#   6]+0.044*[#   7]+0.044*[#   8]+0.016*[#   5]+0.010*[#   9]
          +0.008*[#  10]+0.003*[#  11]+0.003*[#  12]+0.002*[#   2]
    |psi|^2 = 0.223
==== e(  14) =     1.60710 eV ==== 
     psi = 0.024*[#   6]+0.007*[#   7]+0.007*[#   8]+0.004*[#   5]+0.003*[#   9]
          +0.002*[#  10]
    |psi|^2 = 0.049
==== e(  15) =     1.75126 eV ==== 
     psi = 0.041*[#   7]+0.041*[#   8]+0.003*[#  11]+0.003*[#  12]
    |psi|^2 = 0.089
==== e(  16) =     2.01137 eV ==== 
     psi = 0.015*[#   7]+0.015*[#   8]+0.002*[#  11]+0.002*[#  12]+0.002*[#   6]
          
    |psi|^2 = 0.037
==== e(  17) =     2.17431 eV ==== 
     psi = 0.012*[#   6]+0.010*[#  10]+0.005*[#   5]+0.002*[#   9]
    |psi|^2 = 0.031
==== e(  18) =     2.38110 eV ==== 
     psi = 0.001*[#  11]+0.001*[#  12]+0.001*[#   7]+0.001*[#   8]
    |psi|^2 = 0.004
==== e(  19) =     2.71377 eV ==== 
     psi = 0.068*[#   6]+0.015*[#  10]+0.011*[#   5]+0.009*[#   9]+0.001*[#   2]
[...]
          +0.003*[#  11]
    |psi|^2 = 0.093
==== e(  19) =     2.78832 eV ==== 
     psi = 0.001*[#  12]
    |psi|^2 = 0.002
==== e(  20) =     3.13425 eV ==== 
     psi = 0.044*[#   8]+0.004*[#  12]
    |psi|^2 = 0.048
==== e(  21) =     3.18013 eV ==== 
     psi = 0.037*[#   6]+0.006*[#   5]+0.005*[#  10]+0.004*[#   9]+0.002*[#   7]
          
    |psi|^2 = 0.055
==== e(  22) =     3.60641 eV ==== 
     psi = 0.003*[#  10]+0.002*[#   6]
    |psi|^2 = 0.008
==== e(  23) =     3.74972 eV ==== 
     psi = 0.002*[#   8]
    |psi|^2 = 0.003
==== e(  24) =     4.09577 eV ==== 
     psi = 0.010*[#   7]+0.005*[#   6]+0.003*[#  11]+0.003*[#  10]+0.001*[#   5]
          
    |psi|^2 = 0.024
==== e(  25) =     4.19108 eV ==== 
 
    |psi|^2 = 0.001
==== e(  26) =     4.54859 eV ==== 
     psi = 0.012*[#   6]+0.009*[#   7]+0.003*[#   5]+0.002*[#  11]+0.001*[#   9]
          
    |psi|^2 = 0.028
==== e(  27) =     4.55130 eV ==== 
     psi = 0.012*[#   8]+0.002*[#  12]
    |psi|^2 = 0.014
==== e(  28) =     5.05717 eV ==== 
     psi = 0.037*[#   6]+0.013*[#  10]+0.005*[#   5]+0.005*[#   9]+0.004*[#   7]
          
    |psi|^2 = 0.066
==== e(  29) =     5.26875 eV ==== 
     psi = 0.014*[#   6]+0.013*[#   7]+0.004*[#  10]+0.002*[#   9]+0.001*[#   5]
          
    |psi|^2 = 0.036
==== e(  30) =     5.30781 eV ==== 
 
    |psi|^2 = 0.000
==== e(  31) =     5.48312 eV ==== 
     psi = 0.013*[#   6]+0.004*[#  10]+0.003*[#   5]+0.002*[#   9]+0.001*[#   7]
          
    |psi|^2 = 0.024
==== e(  32) =     5.52833 eV ==== 
     psi = 0.005*[#   8]+0.002*[#  12]
    |psi|^2 = 0.007
==== e(  33) =     5.81617 eV ==== 
     psi = 0.002*[#   8]
    |psi|^2 = 0.003

 k =  -0.2500000000 -0.2500000000  0.0000000000
==== e(   1) =   -80.59617 eV ==== 
     psi = 0.998*[#   1]+0.002*[#  10]
    |psi|^2 = 1.000
==== e(   2) =   -47.55691 eV ==== 
     psi = 0.495*[#   3]+0.495*[#   4]+0.005*[#   7]+0.005*[#   8]
    |psi|^2 = 1.000
==== e(   3) =   -47.55691 eV ==== 
     psi = 0.495*[#   3]+0.495*[#   4]+0.005*[#   7]+0.005*[#   8]
    |psi|^2 = 1.000
==== e(   4) =   -47.51831 eV ==== 
     psi = 0.986*[#   2]+0.011*[#   6]+0.002*[#  10]
    |psi|^2 = 1.000
==== e(   5) =   -14.12225 eV ==== 
     psi = 0.882*[#   9]+0.063*[#   6]+0.051*[#   5]+0.002*[#  10]
    |psi|^2 = 0.998
==== e(   6) =    -5.85326 eV ==== 
     psi = 0.577*[#  10]+0.377*[#   5]+0.036*[#   9]
    |psi|^2 = 0.992
==== e(   7) =    -4.05164 eV ==== 
     psi = 0.447*[#  11]+0.447*[#  12]+0.047*[#   7]+0.047*[#   8]
    |psi|^2 = 0.991
==== e(   8) =    -4.05027 eV ==== 
     psi = 0.448*[#  11]+0.448*[#  12]+0.047*[#   7]+0.047*[#   8]
    |psi|^2 = 0.991
==== e(   9) =    -3.69182 eV ==== 
     psi = 0.429*[#   5]+0.290*[#   6]+0.260*[#  10]+0.001*[#   2]+0.001*[#  11]
          +0.001*[#  12]
    |psi|^2 = 0.983
==== e(  10) =    -0.84318 eV ==== 
     psi = 0.317*[#   7]+0.317*[#   8]+0.037*[#  11]+0.037*[#  12]+0.004*[#   3]
          +0.004*[#   4]+0.004*[#   6]
    |psi|^2 = 0.718
==== e(  11) =    -0.77895 eV ==== 
     psi = 0.342*[#   7]+0.342*[#   8]+0.038*[#  11]+0.038*[#  12]+0.004*[#   3]
          +0.004*[#   4]
    |psi|^2 = 0.769
==== e(  12) =     0.62527 eV ==== 
     psi = 0.168*[#   6]+0.069*[#   5]+0.057*[#  10]+0.023*[#   9]+0.004*[#   2]
          +0.002*[#   7]+0.002*[#   8]
    |psi|^2 = 0.327
==== e(  13) =     0.79406 eV ==== 
     psi = 0.094*[#   6]+0.044*[#   7]+0.044*[#   8]+0.016*[#   5]+0.010*[#   9]
          +0.008*[#  10]+0.003*[#  11]+0.003*[#  12]+0.002*[#   2]
    |psi|^2 = 0.223
==== e(  14) =     1.60710 eV ==== 
     psi = 0.024*[#   6]+0.007*[#   7]+0.007*[#   8]+0.004*[#   5]+0.003*[#   9]
          +0.002*[#  10]
    |psi|^2 = 0.049
==== e(  15) =     1.75126 eV ==== 
     psi = 0.041*[#   7]+0.041*[#   8]+0.003*[#  11]+0.003*[#  12]
    |psi|^2 = 0.089
==== e(  16) =     2.01137 eV ==== 
     psi = 0.015*[#   7]+0.015*[#   8]+0.002*[#  11]+0.002*[#  12]+0.002*[#   6]
          
    |psi|^2 = 0.037
==== e(  17) =     2.17431 eV ==== 
     psi = 0.012*[#   6]+0.010*[#  10]+0.005*[#   5]+0.002*[#   9]
    |psi|^2 = 0.031
==== e(  18) =     2.38110 eV ==== 
     psi = 0.001*[#  11]+0.001*[#  12]+0.001*[#   7]+0.001*[#   8]
    |psi|^2 = 0.004
==== e(  19) =     2.71377 eV ==== 
     psi = 0.068*[#   6]+0.015*[#  10]+0.011*[#   5]+0.009*[#   9]+0.001*[#   2]
          
    |psi|^2 = 0.105
==== e(  20) =     3.00410 eV ==== 
     psi = 0.005*[#   7]+0.005*[#   8]+0.002*[#  11]+0.002*[#  12]
    |psi|^2 = 0.014
==== e(  21) =     3.47696 eV ==== 
     psi = 0.005*[#   7]+0.005*[#   8]+0.001*[#  11]+0.001*[#  12]
    |psi|^2 = 0.013
==== e(  22) =     3.66228 eV ==== 
     psi = 0.017*[#   6]+0.005*[#  10]+0.004*[#   7]+0.004*[#   8]+0.002*[#   5]
          +0.002*[#   9]
    |psi|^2 = 0.036
==== e(  23) =     3.97532 eV ==== 
     psi = 0.002*[#   7]+0.002*[#   8]+0.002*[#  10]
    |psi|^2 = 0.007
==== e(  24) =     4.12265 eV ==== 
     psi = 0.015*[#   7]+0.015*[#   8]
    |psi|^2 = 0.031
==== e(  25) =     4.32142 eV ==== 
     psi = 0.005*[#   7]+0.005*[#   8]+0.003*[#   6]+0.002*[#  11]+0.002*[#  12]
          
    |psi|^2 = 0.018
==== e(  26) =     4.44473 eV ==== 
     psi = 0.002*[#   7]+0.002*[#   8]+0.002*[#  11]+0.002*[#  12]
    |psi|^2 = 0.008
==== e(  27) =     4.79158 eV ==== 
     psi = 0.009*[#   6]+0.003*[#  10]
    |psi|^2 = 0.014
==== e(  28) =     5.01031 eV ==== 
     psi = 0.017*[#   6]+0.006*[#   5]+0.003*[#  10]+0.002*[#   9]
    |psi|^2 = 0.030
==== e(  29) =     5.10247 eV ==== 
 
    |psi|^2 = 0.002
==== e(  30) =     5.32841 eV ==== 
     psi = 0.005*[#   7]+0.005*[#   8]
    |psi|^2 = 0.012
==== e(  31) =     5.39406 eV ==== 
     psi = 0.007*[#   6]+0.005*[#   7]+0.005*[#   8]+0.001*[#   5]
    |psi|^2 = 0.020
==== e(  32) =     5.61274 eV ==== 
 
    |psi|^2 = 0.002
==== e(  33) =     5.86366 eV ==== 
     psi = 0.002*[#   7]+0.002*[#   8]
    |psi|^2 = 0.006

 k =  -0.2500000000 -0.2500000000  0.1750000000
==== e(   1) =   -80.59617 eV ==== 
     psi = 0.998*[#   1]+0.002*[#  10]
    |psi|^2 = 1.000
==== e(   2) =   -47.55691 eV ==== 
     psi = 0.495*[#   3]+0.495*[#   4]+0.005*[#   7]+0.005*[#   8]
    |psi|^2 = 1.000
==== e(   3) =   -47.55691 eV ==== 
     psi = 0.495*[#   3]+0.495*[#   4]+0.005*[#   7]+0.005*[#   8]
    |psi|^2 = 1.000
==== e(   4) =   -47.51831 eV ==== 
     psi = 0.986*[#   2]+0.011*[#   6]+0.002*[#  10]
    |psi|^2 = 1.000
==== e(   5) =   -14.12225 eV ==== 
     psi = 0.882*[#   9]+0.063*[#   6]+0.051*[#   5]+0.002*[#  10]
    |psi|^2 = 0.998
==== e(   6) =    -5.85426 eV ==== 
     psi = 0.577*[#  10]+0.378*[#   5]+0.036*[#   9]
    |psi|^2 = 0.992
==== e(   7) =    -4.05147 eV ==== 
     psi = 0.447*[#  11]+0.447*[#  12]+0.047*[#   7]+0.047*[#   8]
    |psi|^2 = 0.991
==== e(   8) =    -4.05014 eV ==== 
     psi = 0.448*[#  11]+0.448*[#  12]+0.047*[#   7]+0.047*[#   8]
    |psi|^2 = 0.991
==== e(   9) =    -3.68595 eV ==== 
     psi = 0.428*[#   5]+0.291*[#   6]+0.261*[#  10]+0.001*[#   2]+0.001*[#  11]
          +0.001*[#  12]
    |psi|^2 = 0.984
==== e(  10) =    -0.84604 eV ==== 
     psi = 0.317*[#   7]+0.317*[#   8]+0.036*[#  11]+0.036*[#  12]+0.004*[#   3]
          +0.004*[#   4]+0.003*[#   6]
    |psi|^2 = 0.718
==== e(  11) =    -0.78236 eV ==== 
     psi = 0.342*[#   7]+0.342*[#   8]+0.038*[#  11]+0.038*[#  12]+0.004*[#   3]
          +0.004*[#   4]
    |psi|^2 = 0.768
==== e(  12) =     0.42223 eV ==== 
     psi = 0.174*[#   6]+0.062*[#   5]+0.049*[#  10]+0.024*[#   9]+0.003*[#   2]
          +0.003*[#   7]+0.003*[#   8]
    |psi|^2 = 0.319
==== e(  13) =     0.96107 eV ==== 
     psi = 0.067*[#   6]+0.050*[#   7]+0.050*[#   8]+0.015*[#   5]+0.009*[#  10]
          +0.007*[#   9]+0.004*[#  11]+0.004*[#  12]+0.001*[#   2]
    |psi|^2 = 0.208
==== e(  14) =     1.70817 eV ==== 
     psi = 0.039*[#   6]+0.009*[#   5]+0.006*[#  10]+0.004*[#   9]+0.002*[#   7]
          +0.002*[#   8]
    |psi|^2 = 0.061
==== e(  15) =     1.81231 eV ==== 
     psi = 0.040*[#   7]+0.040*[#   8]+0.004*[#  11]+0.004*[#  12]
    |psi|^2 = 0.089
==== e(  16) =     1.85671 eV ==== 
     psi = 0.019*[#   6]+0.010*[#  10]+0.006*[#   5]+0.005*[#   7]+0.005*[#   8]
          +0.003*[#   9]+0.001*[#  11]+0.001*[#  12]
    |psi|^2 = 0.052
==== e(  17) =     2.26113 eV ==== 
     psi = 0.005*[#   7]+0.005*[#   8]+0.002*[#  11]+0.002*[#  12]
    |psi|^2 = 0.012
==== e(  18) =     2.27681 eV ==== 
     psi = 0.010*[#   6]+0.007*[#   7]+0.007*[#   8]+0.004*[#  10]+0.003*[#   5]
          +0.002*[#   9]+0.001*[#  11]+0.001*[#  12]
    |psi|^2 = 0.036
==== e(  19) =     3.00935 eV ==== 
     psi = 0.038*[#   6]+0.011*[#  10]+0.008*[#   5]+0.005*[#   9]+0.001*[#   7]
          +0.001*[#   8]
    |psi|^2 = 0.066
==== e(  20) =     3.13992 eV ==== 
     psi = 0.005*[#   7]+0.005*[#   8]+0.002*[#  11]+0.002*[#  12]
    |psi|^2 = 0.013
==== e(  21) =     3.28047 eV ==== 
     psi = 0.025*[#   6]+0.005*[#  10]+0.004*[#   5]+0.004*[#   7]+0.004*[#   8]
          +0.003*[#   9]
    |psi|^2 = 0.046
==== e(  22) =     3.69972 eV ==== 
     psi = 0.004*[#   6]+0.003*[#   7]+0.003*[#   8]+0.001*[#   5]+0.001*[#  11]
          +0.001*[#  12]
    |psi|^2 = 0.014
==== e(  23) =     3.97747 eV ==== 
     psi = 0.005*[#   7]+0.005*[#   8]+0.001*[#  11]+0.001*[#  12]
    |psi|^2 = 0.015
==== e(  24) =     4.07206 eV ==== 
     psi = 0.009*[#   7]+0.009*[#   8]
    |psi|^2 = 0.019
==== e(  25) =     4.24404 eV ==== 
     psi = 0.004*[#   6]+0.002*[#   7]+0.002*[#   8]+0.001*[#   5]
    |psi|^2 = 0.010
==== e(  26) =     4.49320 eV ==== 
     psi = 0.004*[#   7]+0.004*[#   8]+0.001*[#  11]+0.001*[#  12]
    |psi|^2 = 0.010
==== e(  27) =     4.73740 eV ==== 
     psi = 0.033*[#   6]+0.010*[#  10]+0.006*[#   5]+0.004*[#   9]+0.002*[#   7]
          +0.002*[#   8]
    |psi|^2 = 0.059
==== e(  28) =     4.75508 eV ==== 
 
    |psi|^2 = 0.002
==== e(  29) =     4.92935 eV ==== 
     psi = 0.028*[#   6]+0.007*[#  10]+0.003*[#   5]+0.004*[#   9]+0.001*[#   7]
          +0.001*[#   8]
    |psi|^2 = 0.045
==== e(  30) =     5.23272 eV ==== 
     psi = 0.012*[#   6]+0.003*[#  10]+0.002*[#   7]+0.002*[#   8]+0.002*[#   9]
          +0.002*[#   5]
    |psi|^2 = 0.021
==== e(  31) =     5.44483 eV ==== 
     psi = 0.004*[#   7]+0.004*[#   8]
    |psi|^2 = 0.008
==== e(  32) =     5.56539 eV ==== 
     psi = 0.002*[#   7]+0.002*[#   8]+0.002*[#   6]
    |psi|^2 = 0.010
==== e(  33) =     5.88956 eV ==== 
     psi = 0.003*[#   7]+0.003*[#   8]
    |psi|^2 = 0.006

 k =  -0.2500000000 -0.2500000000 -0.3500000000
==== e(   1) =   -80.59617 eV ==== 
     psi = 0.998*[#   1]+0.002*[#  10]
    |psi|^2 = 1.000
==== e(   2) =   -47.55691 eV ==== 
     psi = 0.495*[#   3]+0.495*[#   4]+0.005*[#   7]+0.005*[#   8]
    |psi|^2 = 1.000
==== e(   3) =   -47.55691 eV ==== 
     psi = 0.495*[#   3]+0.495*[#   4]+0.005*[#   7]+0.005*[#   8]
    |psi|^2 = 1.000
==== e(   4) =   -47.51831 eV ==== 
     psi = 0.986*[#   2]+0.011*[#   6]+0.002*[#  10]
    |psi|^2 = 1.000
==== e(   5) =   -14.12225 eV ==== 
     psi = 0.882*[#   9]+0.063*[#   6]+0.051*[#   5]+0.002*[#  10]
    |psi|^2 = 0.998
==== e(   6) =    -5.85527 eV ==== 
     psi = 0.577*[#  10]+0.378*[#   5]+0.036*[#   9]
    |psi|^2 = 0.992
==== e(   7) =    -4.05131 eV ==== 
     psi = 0.447*[#  11]+0.447*[#  12]+0.047*[#   7]+0.047*[#   8]
    |psi|^2 = 0.991
==== e(   8) =    -4.05002 eV ==== 
     psi = 0.448*[#  11]+0.448*[#  12]+0.047*[#   7]+0.047*[#   8]
    |psi|^2 = 0.991
==== e(   9) =    -3.68003 eV ==== 
     psi = 0.428*[#   5]+0.292*[#   6]+0.262*[#  10]+0.001*[#   2]
    |psi|^2 = 0.985
==== e(  10) =    -0.84891 eV ==== 
     psi = 0.318*[#   7]+0.318*[#   8]+0.036*[#  11]+0.036*[#  12]+0.004*[#   3]
          +0.004*[#   4]+0.003*[#   6]
    |psi|^2 = 0.718
==== e(  11) =    -0.78574 eV ==== 
     psi = 0.341*[#   7]+0.341*[#   8]+0.038*[#  11]+0.038*[#  12]+0.004*[#   3]
          +0.004*[#   4]
    |psi|^2 = 0.766
==== e(  12) =     0.30819 eV ==== 
     psi = 0.180*[#   6]+0.063*[#   5]+0.050*[#  10]+0.025*[#   9]+0.004*[#   2]
          +0.001*[#   7]+0.001*[#   8]
    |psi|^2 = 0.325
==== e(  13) =     1.05776 eV ==== 
     psi = 0.059*[#   7]+0.059*[#   8]+0.045*[#   6]+0.007*[#   5]+0.004*[#  11]
          +0.004*[#  12]+0.004*[#   9]+0.002*[#  10]
    |psi|^2 = 0.186
==== e(  14) =     1.68518 eV ==== 
     psi = 0.057*[#   6]+0.019*[#  10]+0.017*[#   5]+0.007*[#   9]+0.001*[#   2]
          +0.001*[#   7]+0.001*[#   8]
    |psi|^2 = 0.105
==== e(  15) =     1.80332 eV ==== 
     psi = 0.009*[#   6]
    |psi|^2 = 0.011
==== e(  16) =     1.91724 eV ==== 
     psi = 0.047*[#   7]+0.047*[#   8]+0.005*[#  11]+0.005*[#  12]
    |psi|^2 = 0.106
==== e(  17) =     2.11040 eV ==== 
 
    |psi|^2 = 0.002
==== e(  18) =     2.55292 eV ==== 
     psi = 0.019*[#   6]+0.008*[#   5]+0.007*[#  10]+0.006*[#   7]+0.006*[#   8]
          +0.002*[#   9]+0.001*[#  11]+0.001*[#  12]
    |psi|^2 = 0.051
==== e(  19) =     3.06133 eV ==== 
     psi = 0.006*[#   7]+0.006*[#   8]+0.002*[#  11]+0.002*[#  12]
    |psi|^2 = 0.017
==== e(  20) =     3.28942 eV ==== 
     psi = 0.030*[#   6]+0.009*[#   5]+0.007*[#  10]+0.005*[#   9]
    |psi|^2 = 0.051
==== e(  21) =     3.30626 eV ==== 
     psi = 0.008*[#   7]+0.008*[#   8]+0.002*[#  11]+0.002*[#  12]
    |psi|^2 = 0.021
==== e(  22) =     3.71000 eV ==== 
     psi = 0.024*[#   6]+0.003*[#   5]+0.002*[#   9]+0.002*[#  10]+0.001*[#   7]
          +0.001*[#   8]
    |psi|^2 = 0.034
==== e(  23) =     3.72971 eV ==== 
     psi = 0.002*[#   6]+0.002*[#  10]+0.002*[#   5]
    |psi|^2 = 0.009
==== e(  24) =     3.97178 eV ==== 
     psi = 0.001*[#   7]+0.001*[#   8]
    |psi|^2 = 0.003
==== e(  25) =     4.27864 eV ==== 
     psi = 0.052*[#   6]+0.016*[#  10]+0.009*[#   7]+0.009*[#   8]+0.008*[#   9]
          +0.007*[#   5]+0.002*[#  11]+0.002*[#  12]+0.001*[#   2]
    |psi|^2 = 0.105
==== e(  26) =     4.37171 eV ==== 
 
    |psi|^2 = 0.000
==== e(  27) =     4.61075 eV ==== 
     psi = 0.018*[#   6]+0.004*[#   5]+0.003*[#  10]+0.002*[#   9]
    |psi|^2 = 0.028
==== e(  28) =     4.75529 eV ==== 
     psi = 0.004*[#   7]+0.004*[#   8]
    |psi|^2 = 0.010
==== e(  29) =     5.03778 eV ==== 
     psi = 0.008*[#   6]+0.003*[#  10]+0.001*[#   9]+0.001*[#   7]+0.001*[#   8]
          +0.001*[#   5]
    |psi|^2 = 0.017
==== e(  30) =     5.19846 eV ==== 
     psi = 0.004*[#   6]+0.003*[#  10]+0.001*[#   7]+0.001*[#   8]
    |psi|^2 = 0.011
==== e(  31) =     5.44882 eV ==== 
     psi = 0.017*[#   6]+0.004*[#  10]+0.002*[#   9]+0.001*[#   5]
    |psi|^2 = 0.024
==== e(  32) =     5.61090 eV ==== 
     psi = 0.005*[#   7]+0.005*[#   8]
    |psi|^2 = 0.010
==== e(  33) =     5.77472 eV ==== 
     psi = 0.006*[#   7]+0.006*[#   8]+0.002*[#  11]+0.002*[#  12]
    |psi|^2 = 0.015

 k =  -0.2500000000 -0.2500000000 -0.1750000000
==== e(   1) =   -80.59617 eV ==== 
     psi = 0.998*[#   1]+0.002*[#  10]
    |psi|^2 = 1.000
==== e(   2) =   -47.55691 eV ==== 
     psi = 0.495*[#   3]+0.495*[#   4]+0.005*[#   7]+0.005*[#   8]
    |psi|^2 = 1.000
==== e(   3) =   -47.55691 eV ==== 
     psi = 0.495*[#   3]+0.495*[#   4]+0.005*[#   7]+0.005*[#   8]
    |psi|^2 = 1.000
==== e(   4) =   -47.51831 eV ==== 
     psi = 0.986*[#   2]+0.011*[#   6]+0.002*[#  10]
    |psi|^2 = 1.000
==== e(   5) =   -14.12225 eV ==== 
     psi = 0.882*[#   9]+0.063*[#   6]+0.051*[#   5]+0.002*[#  10]
    |psi|^2 = 0.998
==== e(   6) =    -5.85426 eV ==== 
     psi = 0.577*[#  10]+0.378*[#   5]+0.036*[#   9]
    |psi|^2 = 0.992
==== e(   7) =    -4.05147 eV ==== 
     psi = 0.447*[#  11]+0.447*[#  12]+0.047*[#   7]+0.047*[#   8]
    |psi|^2 = 0.991
==== e(   8) =    -4.05014 eV ==== 
     psi = 0.448*[#  11]+0.448*[#  12]+0.047*[#   7]+0.047*[#   8]
    |psi|^2 = 0.991
==== e(   9) =    -3.68595 eV ==== 
     psi = 0.428*[#   5]+0.291*[#   6]+0.261*[#  10]+0.001*[#   2]+0.001*[#  11]
          +0.001*[#  12]
    |psi|^2 = 0.984
==== e(  10) =    -0.84604 eV ==== 
     psi = 0.317*[#   7]+0.317*[#   8]+0.036*[#  11]+0.036*[#  12]+0.004*[#   3]
          +0.004*[#   4]+0.003*[#   6]
    |psi|^2 = 0.718
==== e(  11) =    -0.78236 eV ==== 
     psi = 0.342*[#   7]+0.342*[#   8]+0.038*[#  11]+0.038*[#  12]+0.004*[#   3]
          +0.004*[#   4]
    |psi|^2 = 0.768
==== e(  12) =     0.42223 eV ==== 
     psi = 0.174*[#   6]+0.062*[#   5]+0.049*[#  10]+0.024*[#   9]+0.003*[#   2]
          +0.003*[#   7]+0.003*[#   8]
    |psi|^2 = 0.319
==== e(  13) =     0.96107 eV ==== 
     psi = 0.067*[#   6]+0.050*[#   7]+0.050*[#   8]+0.015*[#   5]+0.009*[#  10]
          +0.007*[#   9]+0.004*[#  11]+0.004*[#  12]+0.001*[#   2]
    |psi|^2 = 0.208
==== e(  14) =     1.70817 eV ==== 
     psi = 0.039*[#   6]+0.009*[#   5]+0.006*[#  10]+0.004*[#   9]+0.002*[#   7]
          +0.002*[#   8]
    |psi|^2 = 0.061
==== e(  15) =     1.81231 eV ==== 
     psi = 0.040*[#   7]+0.040*[#   8]+0.004*[#  11]+0.004*[#  12]
    |psi|^2 = 0.089
==== e(  16) =     1.85671 eV ==== 
     psi = 0.019*[#   6]+0.010*[#  10]+0.006*[#   5]+0.005*[#   7]+0.005*[#   8]
          +0.003*[#   9]+0.001*[#  11]+0.001*[#  12]
    |psi|^2 = 0.052
==== e(  17) =     2.26113 eV ==== 
     psi = 0.005*[#   7]+0.005*[#   8]+0.002*[#  11]+0.002*[#  12]
    |psi|^2 = 0.012
==== e(  18) =     2.27681 eV ==== 
     psi = 0.010*[#   6]+0.007*[#   7]+0.007*[#   8]+0.004*[#  10]+0.003*[#   5]
          +0.002*[#   9]+0.001*[#  11]+0.001*[#  12]
    |psi|^2 = 0.036
==== e(  19) =     3.00935 eV ==== 
     psi = 0.038*[#   6]+0.011*[#  10]+0.008*[#   5]+0.005*[#   9]+0.001*[#   7]
          +0.001*[#   8]
    |psi|^2 = 0.066
==== e(  20) =     3.13992 eV ==== 
     psi = 0.005*[#   7]+0.005*[#   8]+0.002*[#  11]+0.002*[#  12]
    |psi|^2 = 0.013
==== e(  21) =     3.28047 eV ==== 
     psi = 0.025*[#   6]+0.005*[#  10]+0.004*[#   5]+0.004*[#   7]+0.004*[#   8]
          +0.003*[#   9]
    |psi|^2 = 0.046
==== e(  22) =     3.69972 eV ==== 
     psi = 0.004*[#   6]+0.003*[#   7]+0.003*[#   8]+0.001*[#   5]+0.001*[#  11]
          +0.001*[#  12]
    |psi|^2 = 0.014
==== e(  23) =     3.97747 eV ==== 
     psi = 0.005*[#   7]+0.005*[#   8]+0.001*[#  11]+0.001*[#  12]
    |psi|^2 = 0.015
==== e(  24) =     4.07206 eV ==== 
     psi = 0.009*[#   7]+0.009*[#   8]
    |psi|^2 = 0.019
==== e(  25) =     4.24404 eV ==== 
     psi = 0.004*[#   6]+0.002*[#   7]+0.002*[#   8]+0.001*[#   5]
    |psi|^2 = 0.010
==== e(  26) =     4.49320 eV ==== 
     psi = 0.004*[#   7]+0.004*[#   8]+0.001*[#  11]+0.001*[#  12]
    |psi|^2 = 0.010
==== e(  27) =     4.73740 eV ==== 
     psi = 0.033*[#   6]+0.010*[#  10]+0.006*[#   5]+0.004*[#   9]+0.002*[#   7]
          +0.002*[#   8]
    |psi|^2 = 0.059
==== e(  28) =     4.75508 eV ==== 
 
    |psi|^2 = 0.002
==== e(  29) =     4.92935 eV ==== 
     psi = 0.028*[#   6]+0.007*[#  10]+0.003*[#   5]+0.004*[#   9]+0.001*[#   7]
          +0.001*[#   8]
    |psi|^2 = 0.045
==== e(  30) =     5.23272 eV ==== 
     psi = 0.012*[#   6]+0.003*[#  10]+0.002*[#   7]+0.002*[#   8]+0.002*[#   9]
          +0.002*[#   5]
    |psi|^2 = 0.021
==== e(  31) =     5.44483 eV ==== 
     psi = 0.004*[#   7]+0.004*[#   8]
    |psi|^2 = 0.008
==== e(  32) =     5.56539 eV ==== 
     psi = 0.002*[#   7]+0.002*[#   8]+0.002*[#   6]
    |psi|^2 = 0.010
==== e(  33) =     5.88956 eV ==== 
     psi = 0.003*[#   7]+0.003*[#   8]
    |psi|^2 = 0.006

Lowdin Charges: 

     Atom #   1: total charge =   9.4107, s =  2.8925, 
     Atom #   1: total charge =   9.4107, p =  6.5182, pz=  2.1474, px=  2.1854, py=  2.1854, 
     Atom #   2: total charge =   6.5340, s =  1.8384, 
     Atom #   2: total charge =   6.5340, p =  4.6956, pz=  1.1873, px=  1.7542, py=  1.7542, 
     Spilling Parameter:   0.0035
 
     PROJWFC      :      6.30s CPU      7.18s WALL

 
   This run was terminated on:  21:42: 5  16Apr2020            

=------------------------------------------------------------------------------=
   JOB DONE.
=------------------------------------------------------------------------------=
