
     Program PROJWFC v.6.5 starts on 16Apr2020 at 21:38:27 

     This program is part of the open-source Quantum ESPRESSO suite
     for quantum simulation of materials; please cite
         "P. Giannozzi et al., J. Phys.:Condens. Matter 21 395502 (2009);
         "P. Giannozzi et al., J. Phys.:Condens. Matter 29 465901 (2017);
          URL http://www.quantum-espresso.org", 
     in publications or presentations arising from this work. More details at
     http://www.quantum-espresso.org/quote

     Parallel version (MPI), running on     1 processors

     MPI processes distributed on     1 nodes

     Reading xml data from directory:

     /wrk/kfg/julia_data/MgS/dimer.in_vnscf_coords_6/qe.nscf.save/

     IMPORTANT: XC functional enforced from input :
     Exchange-correlation= PBESOL
                           (   1   4  10   8   0   0   0)
     Any further DFT definition will be discarded
     Please, verify this is what you really want

               file mg.pbesol.UPF: wavefunction(s)  3P renormalized
 
     G-vector sticks info
     --------------------
     sticks:   dense  smooth     PW     G-vecs:    dense   smooth      PW
     Sum        3909    2801    777               261761   159925   23349
 

     negative rho (up, down):  4.734E-05 0.000E+00

     Gaussian broadening (read from file): ngauss,degauss=   0    0.010000


     Calling projwave .... 
 
  Problem Sizes 
  natomwfc =           12
  nbnd     =           33
  nkstot   =           64
  npwx     =        20028
  nkb      =           37
 

     Atomic states used for projection
     (read from pseudopotential files):

     state #   1: atom   1 (Mg ), wfc  1 (l=0 m= 1)
     state #   2: atom   1 (Mg ), wfc  2 (l=1 m= 1)
     state #   3: atom   1 (Mg ), wfc  2 (l=1 m= 2)
     state #   4: atom   1 (Mg ), wfc  2 (l=1 m= 3)
     state #   5: atom   1 (Mg ), wfc  3 (l=0 m= 1)
     state #   6: atom   1 (Mg ), wfc  4 (l=1 m= 1)
     state #   7: atom   1 (Mg ), wfc  4 (l=1 m= 2)
     state #   8: atom   1 (Mg ), wfc  4 (l=1 m= 3)
     state #   9: atom   2 (S  ), wfc  1 (l=0 m= 1)
     state #  10: atom   2 (S  ), wfc  2 (l=1 m= 1)
     state #  11: atom   2 (S  ), wfc  2 (l=1 m= 2)
     state #  12: atom   2 (S  ), wfc  2 (l=1 m= 3)

 k =   0.0000000000  0.0000000000  0.0000000000
==== e(   1) =   -80.47689 eV ==== 
     psi = 0.997*[#   1]+0.003*[#  10]
    |psi|^2 = 1.000
==== e(   2) =   -47.43163 eV ==== 
     psi = 0.989*[#   4]+0.010*[#   8]
    |psi|^2 = 1.000
==== e(   3) =   -47.43163 eV ==== 
     psi = 0.989*[#   3]+0.010*[#   7]
    |psi|^2 = 1.000
==== e(   4) =   -47.41540 eV ==== 
     psi = 0.985*[#   2]+0.011*[#   6]+0.002*[#  10]+0.001*[#   9]
    |psi|^2 = 1.000
==== e(   5) =   -14.12672 eV ==== 
     psi = 0.866*[#   9]+0.070*[#   6]+0.059*[#   5]+0.002*[#  10]
    |psi|^2 = 0.998
==== e(   6) =    -5.83692 eV ==== 
     psi = 0.591*[#  10]+0.360*[#   5]+0.040*[#   9]+0.001*[#   1]
    |psi|^2 = 0.992
==== e(   7) =    -4.04239 eV ==== 
     psi = 0.890*[#  12]+0.102*[#   8]
    |psi|^2 = 0.992
==== e(   8) =    -4.04239 eV ==== 
     psi = 0.890*[#  11]+0.102*[#   7]
    |psi|^2 = 0.992
==== e(   9) =    -3.64295 eV ==== 
     psi = 0.429*[#   5]+0.295*[#   6]+0.252*[#  10]
    |psi|^2 = 0.977
==== e(  10) =    -0.46082 eV ==== 
     psi = 0.637*[#   8]+0.088*[#   7]+0.075*[#  12]+0.010*[#  11]+0.007*[#   4]
          
    |psi|^2 = 0.817
==== e(  11) =    -0.46082 eV ==== 
     psi = 0.637*[#   7]+0.088*[#   8]+0.075*[#  11]+0.010*[#  12]+0.007*[#   3]
          
    |psi|^2 = 0.817
==== e(  12) =     0.22641 eV ==== 
     psi = 0.079*[#   6]+0.007*[#   9]+0.005*[#   5]+0.001*[#   2]
    |psi|^2 = 0.093
==== e(  13) =     0.45250 eV ==== 
     psi = 0.154*[#   6]+0.073*[#   5]+0.049*[#  10]+0.025*[#   9]+0.004*[#   2]
          
    |psi|^2 = 0.305
==== e(  14) =     1.41884 eV ==== 
     psi = 0.013*[#   6]+0.005*[#   5]+0.005*[#  10]+0.004*[#   9]
    |psi|^2 = 0.027
==== e(  15) =     1.44556 eV ==== 
 
    |psi|^2 = 0.000
==== e(  16) =     2.75037 eV ==== 
     psi = 0.043*[#   8]+0.008*[#   7]+0.007*[#  12]+0.001*[#  11]
    |psi|^2 = 0.059
==== e(  17) =     2.75037 eV ==== 
     psi = 0.043*[#   7]+0.008*[#   8]+0.007*[#  11]+0.001*[#  12]
    |psi|^2 = 0.059
==== e(  18) =     2.75669 eV ==== 
     psi = 0.081*[#   6]+0.032*[#  10]+0.021*[#   5]+0.013*[#   9]+0.002*[#   2]
          
    |psi|^2 = 0.149
==== e(  19) =     3.08251 eV ==== 
 
    |psi|^2 = 0.000
==== e(  20) =     3.37518 eV ==== 
 
    |psi|^2 = 0.000
==== e(  21) =     3.37992 eV ==== 
     psi = 0.047*[#   6]+0.007*[#   5]+0.006*[#   9]+0.005*[#  10]
    |psi|^2 = 0.066
==== e(  22) =     3.71236 eV ==== 
 
    |psi|^2 = 0.000
==== e(  23) =     3.71909 eV ==== 
     psi = 0.002*[#  12]
    |psi|^2 = 0.003
==== e(  24) =     3.71909 eV ==== 
     psi = 0.002*[#  11]
    |psi|^2 = 0.003
==== e(  25) =     4.29473 eV ==== 
 
    |psi|^2 = 0.002
==== e(  26) =     4.30808 eV ==== 
     psi = 0.014*[#   8]+0.006*[#   7]+0.002*[#  12]
    |psi|^2 = 0.023
==== e(  27) =     4.30808 eV ==== 
     psi = 0.014*[#   7]+0.006*[#   8]+0.002*[#  11]
    |psi|^2 = 0.023
==== e(  28) =     4.90740 eV ==== 
     psi = 0.015*[#   6]+0.007*[#   5]+0.004*[#  10]+0.002*[#   9]
    |psi|^2 = 0.030
==== e(  29) =     5.18904 eV ==== 
     psi = 0.009*[#   8]+0.004*[#  12]+0.001*[#   7]
    |psi|^2 = 0.015
==== e(  30) =     5.18904 eV ==== 
     psi = 0.009*[#   7]+0.004*[#  11]+0.001*[#   8]
    |psi|^2 = 0.015
==== e(  31) =     5.21841 eV ==== 
     psi = 0.004*[#   6]+0.002*[#   5]
    |psi|^2 = 0.007
==== e(  32) =     5.32045 eV ==== 
 
    |psi|^2 = 0.000
==== e(  33) =     6.05285 eV ==== 
 
    |psi|^2 = 0.000

 k =   0.0000000000  0.0000000000  0.1750000000
==== e(   1) =   -80.47689 eV ==== 
     psi = 0.997*[#   1]+0.003*[#  10]
    |psi|^2 = 1.000
==== e(   2) =   -47.43163 eV ==== 
     psi = 0.680*[#   4]+0.309*[#   3]+0.007*[#   8]+0.003*[#   7]
    |psi|^2 = 1.000
==== e(   3) =   -47.43163 eV ==== 
     psi = 0.680*[#   3]+0.309*[#   4]+0.007*[#   7]+0.003*[#   8]
    |psi|^2 = 1.000
==== e(   4) =   -47.41540 eV ==== 
     psi = 0.985*[#   2]+0.011*[#   6]+0.002*[#  10]+0.001*[#   9]
    |psi|^2 = 1.000
==== e(   5) =   -14.12672 eV ==== 
     psi = 0.866*[#   9]+0.070*[#   6]+0.059*[#   5]+0.002*[#  10]
    |psi|^2 = 0.998
==== e(   6) =    -5.83789 eV ==== 
     psi = 0.590*[#  10]+0.360*[#   5]+0.040*[#   9]+0.001*[#   1]
    |psi|^2 = 0.992
==== e(   7) =    -4.04231 eV ==== 
     psi = 0.713*[#  12]+0.177*[#  11]+0.081*[#   8]+0.020*[#   7]
    |psi|^2 = 0.992
==== e(   8) =    -4.04231 eV ==== 
     psi = 0.713*[#  11]+0.177*[#  12]+0.081*[#   7]+0.020*[#   8]
    |psi|^2 = 0.992
==== e(   9) =    -3.63675 eV ==== 
     psi = 0.428*[#   5]+0.296*[#   6]+0.253*[#  10]
    |psi|^2 = 0.978
==== e(  10) =    -0.46380 eV ==== 
     psi = 0.456*[#   7]+0.268*[#   8]+0.053*[#  11]+0.031*[#  12]+0.005*[#   3]
          +0.003*[#   4]
    |psi|^2 = 0.816
==== e(  11) =    -0.46380 eV ==== 
     psi = 0.456*[#   8]+0.268*[#   7]+0.053*[#  12]+0.031*[#  11]+0.005*[#   4]
          +0.003*[#   3]
    |psi|^2 = 0.816
==== e(  12) =     0.15778 eV ==== 
     psi = 0.120*[#   6]+0.041*[#   5]+0.026*[#  10]+0.018*[#   9]+0.002*[#   2]
          
    |psi|^2 = 0.208
==== e(  13) =     0.39842 eV ==== 
     psi = 0.093*[#   6]+0.027*[#   5]+0.017*[#  10]+0.012*[#   9]+0.002*[#   2]
          
    |psi|^2 = 0.151
==== e(  14) =     1.46121 eV ==== 
 
    |psi|^2 = 0.000
==== e(  15) =     1.69286 eV ==== 
     psi = 0.034*[#   6]+0.017*[#   5]+0.014*[#  10]+0.006*[#   9]
    |psi|^2 = 0.072
==== e(  16) =     2.59940 eV ==== 
     psi = 0.063*[#   6]+0.022*[#  10]+0.016*[#   5]+0.011*[#   9]+0.001*[#   2]
          
    |psi|^2 = 0.113
==== e(  17) =     2.82728 eV ==== 
     psi = 0.052*[#   7]+0.009*[#  11]+0.002*[#   8]
    |psi|^2 = 0.064
==== e(  18) =     2.82728 eV ==== 
     psi = 0.052*[#   8]+0.009*[#  12]+0.002*[#   7]
    |psi|^2 = 0.064
==== e(  19) =     3.06314 eV ==== 
 
    |psi|^2 = 0.000
==== e(  20) =     3.08897 eV ==== 
 
    |psi|^2 = 0.000
==== e(  21) =     3.65479 eV ==== 
     psi = 0.038*[#   6]+0.009*[#   5]+0.008*[#  10]+0.004*[#   9]
    |psi|^2 = 0.060
==== e(  22) =     3.67022 eV ==== 
     psi = 0.007*[#   8]+0.002*[#  12]
    |psi|^2 = 0.010
==== e(  23) =     3.67022 eV ==== 
     psi = 0.007*[#   7]+0.002*[#  11]
    |psi|^2 = 0.010
==== e(  24) =     3.93975 eV ==== 
     psi = 0.031*[#   6]+0.006*[#   5]+0.005*[#   9]+0.003*[#  10]
    |psi|^2 = 0.046
==== e(  25) =     4.15036 eV ==== 
     psi = 0.008*[#   7]+0.002*[#   8]+0.002*[#  11]
    |psi|^2 = 0.013
==== e(  26) =     4.15036 eV ==== 
     psi = 0.008*[#   8]+0.002*[#   7]+0.002*[#  12]
    |psi|^2 = 0.013
==== e(  27) =     4.24857 eV ==== 
 
    |psi|^2 = 0.000
==== e(  28) =     4.63600 eV ==== 
     psi = 0.021*[#   6]+0.009*[#  10]+0.005*[#   5]+0.005*[#   9]
    |psi|^2 = 0.040
==== e(  29) =     5.15190 eV ==== 
 
    |psi|^2 = 0.000
==== e(  30) =     5.40772 eV ==== 
     psi = 0.017*[#   6]+0.006*[#  10]+0.003*[#   9]+0.001*[#   5]
    |psi|^2 = 0.028
==== e(  31) =     5.41304 eV ==== 
     psi = 0.003*[#   8]+0.003*[#   7]+0.002*[#  11]+0.002*[#  12]
    |psi|^2 = 0.010
==== e(  32) =     5.41304 eV ==== 
     psi = 0.003*[#   7]+0.003*[#   8]+0.002*[#  11]+0.002*[#  12]
    |psi|^2 = 0.010
==== e(  33) =     5.97359 eV ==== 
     psi = 0.005*[#   8]
    |psi|^2 = 0.006

 k =   0.0000000000  0.0000000000 -0.3500000000
==== e(   1) =   -80.47689 eV ==== 
     psi = 0.997*[#   1]+0.003*[#  10]
    |psi|^2 = 1.000
==== e(   2) =   -47.43163 eV ==== 
     psi = 0.541*[#   3]+0.449*[#   4]+0.006*[#   7]+0.005*[#   8]
    |psi|^2 = 1.000
==== e(   3) =   -47.43163 eV ==== 
     psi = 0.541*[#   4]+0.449*[#   3]+0.006*[#   8]+0.005*[#   7]
    |psi|^2 = 1.000
==== e(   4) =   -47.41540 eV ==== 
     psi = 0.985*[#   2]+0.011*[#   6]+0.002*[#  10]+0.001*[#   9]
    |psi|^2 = 1.000
==== e(   5) =   -14.12672 eV ==== 
     psi = 0.866*[#   9]+0.070*[#   6]+0.059*[#   5]+0.002*[#  10]
    |psi|^2 = 0.998
==== e(   6) =    -5.83887 eV ==== 
     psi = 0.590*[#  10]+0.360*[#   5]+0.040*[#   9]+0.001*[#   1]
    |psi|^2 = 0.992
==== e(   7) =    -4.04222 eV ==== 
     psi = 0.773*[#  12]+0.117*[#  11]+0.088*[#   8]+0.013*[#   7]
    |psi|^2 = 0.992
==== e(   8) =    -4.04222 eV ==== 
     psi = 0.773*[#  11]+0.117*[#  12]+0.088*[#   7]+0.013*[#   8]
    |psi|^2 = 0.992
==== e(   9) =    -3.63051 eV ==== 
     psi = 0.428*[#   5]+0.296*[#   6]+0.253*[#  10]
    |psi|^2 = 0.979
==== e(  10) =    -0.46675 eV ==== 
     psi = 0.692*[#   8]+0.081*[#  12]+0.030*[#   7]+0.008*[#   4]+0.004*[#  11]
          
    |psi|^2 = 0.815
==== e(  11) =    -0.46675 eV ==== 
     psi = 0.692*[#   7]+0.081*[#  11]+0.030*[#   8]+0.008*[#   3]+0.004*[#  12]
          
    |psi|^2 = 0.815
==== e(  12) =     0.08010 eV ==== 
     psi = 0.139*[#   6]+0.059*[#   5]+0.038*[#  10]+0.024*[#   9]+0.003*[#   2]
          
    |psi|^2 = 0.263
==== e(  13) =     0.38522 eV ==== 
     psi = 0.066*[#   6]+0.005*[#   9]+0.005*[#   5]
    |psi|^2 = 0.077
==== e(  14) =     1.47787 eV ==== 
 
    |psi|^2 = 0.000
==== e(  15) =     1.93895 eV ==== 
     psi = 0.061*[#   6]+0.027*[#  10]+0.025*[#   5]+0.009*[#   9]+0.001*[#   2]
          
    |psi|^2 = 0.124
==== e(  16) =     2.65264 eV ==== 
     psi = 0.016*[#   6]+0.009*[#   5]+0.003*[#  10]+0.002*[#   9]
    |psi|^2 = 0.031
==== e(  17) =     2.90510 eV ==== 
 
    |psi|^2 = 0.000
==== e(  18) =     2.92872 eV ==== 
     psi = 0.052*[#   7]+0.010*[#  11]+0.007*[#   8]+0.001*[#  12]
    |psi|^2 = 0.071
==== e(  19) =     2.92872 eV ==== 
     psi = 0.052*[#   8]+0.010*[#  12]+0.007*[#   7]+0.001*[#  11]
    |psi|^2 = 0.071
==== e(  20) =     3.09556 eV ==== 
 
    |psi|^2 = 0.000
==== e(  21) =     3.28458 eV ==== 
     psi = 0.055*[#   6]+0.014*[#  10]+0.013*[#   5]+0.010*[#   9]+0.001*[#   2]
          
    |psi|^2 = 0.093
==== e(  22) =     3.56532 eV ==== 
     psi = 0.007*[#   7]+0.007*[#   8]
    |psi|^2 = 0.015
==== e(  23) =     3.56532 eV ==== 
     psi = 0.007*[#   8]+0.007*[#   7]
    |psi|^2 = 0.015
==== e(  24) =     3.99289 eV ==== 
     psi = 0.037*[#   6]+0.005*[#   5]+0.004*[#   9]+0.004*[#  10]
    |psi|^2 = 0.051
==== e(  25) =     4.07620 eV ==== 
     psi = 0.001*[#  11]+0.001*[#  12]
    |psi|^2 = 0.003
==== e(  26) =     4.07620 eV ==== 
     psi = 0.001*[#  11]+0.001*[#  12]
    |psi|^2 = 0.003
==== e(  27) =     4.75758 eV ==== 
     psi = 0.023*[#   6]+0.013*[#  10]+0.005*[#   5]+0.004*[#   9]
    |psi|^2 = 0.045
==== e(  28) =     5.03947 eV ==== 
 
    |psi|^2 = 0.000
==== e(  29) =     5.04551 eV ==== 
 
    |psi|^2 = 0.000
==== e(  30) =     5.17351 eV ==== 
 
    |psi|^2 = 0.000
==== e(  31) =     5.42605 eV ==== 
 
    |psi|^2 = 0.000
==== e(  32) =     5.42605 eV ==== 
 
    |psi|^2 = 0.000
==== e(  33) =     5.48424 eV ==== 
     psi = 0.063*[#   6]+0.014*[#  10]+0.011*[#   9]+0.009*[#   5]+0.001*[#   2]
          
    |psi|^2 = 0.099

 k =   0.0000000000  0.0000000000 -0.1750000000
==== e(   1) =   -80.47689 eV ==== 
     psi = 0.997*[#   1]+0.003*[#  10]
    |psi|^2 = 1.000
==== e(   2) =   -47.43163 eV ==== 
     psi = 0.537*[#   4]+0.453*[#   3]+0.006*[#   8]+0.005*[#   7]
    |psi|^2 = 1.000
==== e(   3) =   -47.43163 eV ==== 
     psi = 0.537*[#   3]+0.453*[#   4]+0.006*[#   7]+0.005*[#   8]
    |psi|^2 = 1.000
==== e(   4) =   -47.41540 eV ==== 
     psi = 0.985*[#   2]+0.011*[#   6]+0.002*[#  10]+0.001*[#   9]
    |psi|^2 = 1.000
==== e(   5) =   -14.12672 eV ==== 
     psi = 0.866*[#   9]+0.070*[#   6]+0.059*[#   5]+0.002*[#  10]
    |psi|^2 = 0.998
==== e(   6) =    -5.83789 eV ==== 
     psi = 0.590*[#  10]+0.360*[#   5]+0.040*[#   9]+0.001*[#   1]
    |psi|^2 = 0.992
==== e(   7) =    -4.04231 eV ==== 
     psi = 0.617*[#  11]+0.273*[#  12]+0.071*[#   7]+0.031*[#   8]
    |psi|^2 = 0.992
==== e(   8) =    -4.04231 eV ==== 
     psi = 0.617*[#  12]+0.273*[#  11]+0.071*[#   8]+0.031*[#   7]
    |psi|^2 = 0.992
==== e(   9) =    -3.63675 eV ==== 
     psi = 0.428*[#   5]+0.296*[#   6]+0.253*[#  10]
    |psi|^2 = 0.978
==== e(  10) =    -0.46380 eV ==== 
     psi = 0.388*[#   8]+0.335*[#   7]+0.045*[#  12]+0.039*[#  11]+0.004*[#   4]
          +0.004*[#   3]
    |psi|^2 = 0.816
==== e(  11) =    -0.46380 eV ==== 
     psi = 0.388*[#   7]+0.335*[#   8]+0.045*[#  11]+0.039*[#  12]+0.004*[#   3]
          +0.004*[#   4]
    |psi|^2 = 0.816
==== e(  12) =     0.15778 eV ==== 
     psi = 0.120*[#   6]+0.041*[#   5]+0.026*[#  10]+0.018*[#   9]+0.002*[#   2]
          
    |psi|^2 = 0.208
==== e(  13) =     0.39842 eV ==== 
     psi = 0.093*[#   6]+0.027*[#   5]+0.017*[#  10]+0.012*[#   9]+0.002*[#   2]
          
    |psi|^2 = 0.151
==== e(  14) =     1.46121 eV ==== 
 
    |psi|^2 = 0.000
==== e(  15) =     1.69286 eV ==== 
     psi = 0.034*[#   6]+0.017*[#   5]+0.014*[#  10]+0.006*[#   9]
    |psi|^2 = 0.072
==== e(  16) =     2.59940 eV ==== 
     psi = 0.063*[#   6]+0.022*[#  10]+0.016*[#   5]+0.011*[#   9]+0.001*[#   2]
          
    |psi|^2 = 0.113
==== e(  17) =     2.82728 eV ==== 
     psi = 0.037*[#   7]+0.017*[#   8]+0.007*[#  11]+0.003*[#  12]
    |psi|^2 = 0.064
==== e(  18) =     2.82728 eV ==== 
     psi = 0.037*[#   8]+0.017*[#   7]+0.007*[#  12]+0.003*[#  11]
    |psi|^2 = 0.064
==== e(  19) =     3.06314 eV ==== 
 
    |psi|^2 = 0.000
==== e(  20) =     3.08897 eV ==== 
 
    |psi|^2 = 0.000
==== e(  21) =     3.65479 eV ==== 
     psi = 0.038*[#   6]+0.009*[#   5]+0.008*[#  10]+0.004*[#   9]
    |psi|^2 = 0.060
==== e(  22) =     3.67022 eV ==== 
     psi = 0.008*[#   7]+0.002*[#  11]
    |psi|^2 = 0.010
==== e(  23) =     3.67022 eV ==== 
     psi = 0.008*[#   8]+0.002*[#  12]
    |psi|^2 = 0.010
==== e(  24) =     3.93975 eV ==== 
     psi = 0.031*[#   6]+0.006*[#   5]+0.005*[#   9]+0.003*[#  10]
    |psi|^2 = 0.046
==== e(  25) =     4.15036 eV ==== 
     psi = 0.006*[#   8]+0.004*[#   7]+0.002*[#  12]+0.001*[#  11]
    |psi|^2 = 0.013
==== e(  26) =     4.15036 eV ==== 
     psi = 0.006*[#   7]+0.004*[#   8]+0.002*[#  11]+0.001*[#  12]
    |psi|^2 = 0.013
==== e(  27) =     4.24857 eV ==== 
 
    |psi|^2 = 0.000
==== e(  28) =     4.63600 eV ==== 
     psi = 0.021*[#   6]+0.009*[#  10]+0.005*[#   5]+0.005*[#   9]
    |psi|^2 = 0.040
==== e(  29) =     5.15190 eV ==== 
 
    |psi|^2 = 0.000
==== e(  30) =     5.40772 eV ==== 
     psi = 0.017*[#   6]+0.006*[#  10]+0.003*[#   9]+0.001*[#   5]
    |psi|^2 = 0.028
==== e(  31) =     5.41304 eV ==== 
     psi = 0.006*[#   7]+0.003*[#  11]
    |psi|^2 = 0.010
==== e(  32) =     5.41304 eV ==== 
     psi = 0.006*[#   8]+0.003*[#  12]
    |psi|^2 = 0.010
==== e(  33) =     5.97359 eV ==== 
     psi = 0.004*[#   7]+0.002*[#   8]
    |psi|^2 = 0.006

 k =   0.0000000000  0.2500000000  0.0000000000
==== e(   1) =   -80.47689 eV ==== 
     psi = 0.997*[#   1]+0.003*[#  10]
    |psi|^2 = 1.000
==== e(   2) =   -47.43163 eV ==== 
     psi = 0.990*[#   3]+0.010*[#   7]
    |psi|^2 = 1.000
==== e(   3) =   -47.43163 eV ==== 
     psi = 0.990*[#   4]+0.010*[#   8]
    |psi|^2 = 1.000
==== e(   4) =   -47.41540 eV ==== 
     psi = 0.985*[#   2]+0.011*[#   6]+0.002*[#  10]+0.001*[#   9]
    |psi|^2 = 1.000
==== e(   5) =   -14.12664 eV ==== 
     psi = 0.866*[#   9]+0.070*[#   6]+0.059*[#   5]+0.002*[#  10]
    |psi|^2 = 0.998
==== e(   6) =    -5.83331 eV ==== 
     psi = 0.593*[#  10]+0.357*[#   5]+0.040*[#   9]+0.001*[#   1]
    |psi|^2 = 0.992
==== e(   7) =    -4.05755 eV ==== 
     psi = 0.883*[#  12]+0.107*[#   8]
    |psi|^2 = 0.991
==== e(   8) =    -4.04109 eV ==== 
     psi = 0.890*[#  11]+0.101*[#   7]
    |psi|^2 = 0.992
==== e(   9) =    -3.62308 eV ==== 
     psi = 0.430*[#   5]+0.298*[#   6]+0.249*[#  10]
    |psi|^2 = 0.979
==== e(  10) =    -0.77560 eV ==== 
     psi = 0.610*[#   8]+0.080*[#  12]+0.007*[#   4]+0.003*[#   6]
    |psi|^2 = 0.700
==== e(  11) =    -0.43347 eV ==== 
     psi = 0.731*[#   7]+0.085*[#  11]+0.008*[#   3]
    |psi|^2 = 0.824
==== e(  12) =     0.53878 eV ==== 
     psi = 0.055*[#   8]+0.027*[#   6]+0.005*[#  12]+0.002*[#   9]
    |psi|^2 = 0.090
==== e(  13) =     0.58296 eV ==== 
     psi = 0.210*[#   6]+0.082*[#   5]+0.053*[#  10]+0.032*[#   9]+0.005*[#   2]
          
    |psi|^2 = 0.382
==== e(  14) =     1.52327 eV ==== 
     psi = 0.020*[#   8]+0.004*[#   6]+0.003*[#  10]+0.003*[#   5]+0.001*[#   9]
          +0.001*[#  12]
    |psi|^2 = 0.033
==== e(  15) =     1.70309 eV ==== 
     psi = 0.064*[#   8]+0.007*[#  12]+0.007*[#   6]+0.002*[#   5]+0.002*[#   9]
          +0.001*[#  10]
    |psi|^2 = 0.084
==== e(  16) =     2.19890 eV ==== 
     psi = 0.006*[#   6]+0.005*[#  10]+0.003*[#   5]+0.002*[#   9]+0.001*[#  12]
          
    |psi|^2 = 0.018
==== e(  17) =     2.44186 eV ==== 
     psi = 0.013*[#   7]+0.001*[#  11]
    |psi|^2 = 0.014
==== e(  18) =     2.54114 eV ==== 
     psi = 0.064*[#   6]+0.013*[#   5]+0.012*[#  10]+0.009*[#   9]+0.001*[#   2]
          
    |psi|^2 = 0.102
==== e(  19) =     3.00108 eV ==== 
     psi = 0.033*[#   7]+0.008*[#  11]
    |psi|^2 = 0.041
==== e(  20) =     3.14266 eV ==== 
     psi = 0.016*[#   6]+0.011*[#  10]+0.004*[#   5]+0.003*[#   9]
    |psi|^2 = 0.036
==== e(  21) =     3.16433 eV ==== 
     psi = 0.015*[#   8]+0.004*[#   6]+0.002*[#  12]
    |psi|^2 = 0.024
==== e(  22) =     3.78867 eV ==== 
     psi = 0.023*[#   6]+0.005*[#  10]+0.004*[#   9]+0.003*[#   8]+0.003*[#   5]
          
    |psi|^2 = 0.039
==== e(  23) =     4.11442 eV ==== 
     psi = 0.005*[#   7]+0.003*[#  11]
    |psi|^2 = 0.008
==== e(  24) =     4.13733 eV ==== 
     psi = 0.020*[#   8]+0.006*[#  12]
    |psi|^2 = 0.028
==== e(  25) =     4.46778 eV ==== 
     psi = 0.002*[#   8]
    |psi|^2 = 0.004
==== e(  26) =     4.47119 eV ==== 
     psi = 0.001*[#  11]
    |psi|^2 = 0.002
==== e(  27) =     4.75244 eV ==== 
     psi = 0.027*[#   6]+0.008*[#   5]+0.004*[#  10]+0.003*[#   9]
    |psi|^2 = 0.042
==== e(  28) =     4.95086 eV ==== 
     psi = 0.012*[#   7]
    |psi|^2 = 0.013
==== e(  29) =     5.09199 eV ==== 
     psi = 0.002*[#   8]
    |psi|^2 = 0.004
==== e(  30) =     5.19252 eV ==== 
     psi = 0.012*[#   7]+0.002*[#  11]
    |psi|^2 = 0.015
==== e(  31) =     5.28702 eV ==== 
     psi = 0.003*[#   6]+0.002*[#   5]+0.001*[#  10]
    |psi|^2 = 0.008
==== e(  32) =     5.55394 eV ==== 
     psi = 0.012*[#   6]+0.003*[#   5]+0.001*[#   8]+0.001*[#   9]+0.001*[#  10]
          
    |psi|^2 = 0.019
==== e(  33) =     5.62064 eV ==== 
     psi = 0.010*[#   8]+0.002*[#   6]
    |psi|^2 = 0.013

 k =   0.0000000000  0.2500000000  0.1750000000
==== e(   1) =   -80.47689 eV ==== 
     psi = 0.997*[#   1]+0.003*[#  10]
    |psi|^2 = 1.000
==== e(   2) =   -47.43163 eV ==== 
     psi = 0.990*[#   3]+0.010*[#   7]
    |psi|^2 = 1.000
==== e(   3) =   -47.43163 eV ==== 
     psi = 0.990*[#   4]+0.010*[#   8]
    |psi|^2 = 1.000
==== e(   4) =   -47.41540 eV ==== 
     psi = 0.985*[#   2]+0.011*[#   6]+0.002*[#  10]+0.001*[#   9]
    |psi|^2 = 1.000
==== e(   5) =   -14.12664 eV ==== 
     psi = 0.866*[#   9]+0.070*[#   6]+0.059*[#   5]+0.002*[#  10]
    |psi|^2 = 0.998
==== e(   6) =    -5.83426 eV ==== 
     psi = 0.593*[#  10]+0.358*[#   5]+0.040*[#   9]+0.001*[#   1]
    |psi|^2 = 0.992
==== e(   7) =    -4.05741 eV ==== 
     psi = 0.883*[#  12]+0.107*[#   8]
    |psi|^2 = 0.991
==== e(   8) =    -4.04102 eV ==== 
     psi = 0.890*[#  11]+0.101*[#   7]
    |psi|^2 = 0.992
==== e(   9) =    -3.61720 eV ==== 
     psi = 0.429*[#   5]+0.299*[#   6]+0.250*[#  10]
    |psi|^2 = 0.980
==== e(  10) =    -0.77849 eV ==== 
     psi = 0.611*[#   8]+0.080*[#  12]+0.007*[#   4]+0.003*[#   6]
    |psi|^2 = 0.700
==== e(  11) =    -0.43633 eV ==== 
     psi = 0.730*[#   7]+0.085*[#  11]+0.008*[#   3]
    |psi|^2 = 0.823
==== e(  12) =     0.33774 eV ==== 
     psi = 0.140*[#   6]+0.056*[#   5]+0.037*[#  10]+0.023*[#   9]+0.009*[#   8]
          +0.003*[#   2]+0.001*[#  12]
    |psi|^2 = 0.268
==== e(  13) =     0.70168 eV ==== 
     psi = 0.078*[#   6]+0.049*[#   8]+0.017*[#   5]+0.009*[#  10]+0.009*[#   9]
          +0.004*[#  12]+0.001*[#   2]
    |psi|^2 = 0.168
==== e(  14) =     1.58906 eV ==== 
     psi = 0.044*[#   8]+0.010*[#   6]+0.005*[#   5]+0.005*[#  10]+0.004*[#  12]
          +0.002*[#   9]
    |psi|^2 = 0.070
==== e(  15) =     1.85610 eV ==== 
     psi = 0.040*[#   8]+0.018*[#   6]+0.009*[#   5]+0.009*[#  10]+0.005*[#  12]
          +0.003*[#   9]
    |psi|^2 = 0.085
==== e(  16) =     2.07687 eV ==== 
     psi = 0.024*[#   6]+0.007*[#   5]+0.005*[#  10]+0.004*[#   9]
    |psi|^2 = 0.042
==== e(  17) =     2.46800 eV ==== 
     psi = 0.011*[#   7]+0.001*[#  11]
    |psi|^2 = 0.012
==== e(  18) =     2.74459 eV ==== 
     psi = 0.043*[#   6]+0.009*[#   5]+0.006*[#  10]+0.006*[#   9]+0.004*[#   8]
          
    |psi|^2 = 0.070
==== e(  19) =     2.93627 eV ==== 
     psi = 0.013*[#   6]+0.009*[#  10]+0.004*[#   5]+0.002*[#   8]+0.003*[#   9]
          
    |psi|^2 = 0.031
==== e(  20) =     3.04623 eV ==== 
     psi = 0.037*[#   7]+0.009*[#  11]
    |psi|^2 = 0.046
==== e(  21) =     3.27681 eV ==== 
     psi = 0.009*[#   8]+0.002*[#  12]
    |psi|^2 = 0.014
==== e(  22) =     3.77547 eV ==== 
     psi = 0.005*[#   8]+0.004*[#   6]+0.002*[#   5]+0.002*[#  10]+0.001*[#  12]
          
    |psi|^2 = 0.014
==== e(  23) =     3.95649 eV ==== 
     psi = 0.009*[#   7]+0.003*[#  11]
    |psi|^2 = 0.012
==== e(  24) =     4.20306 eV ==== 
     psi = 0.023*[#   6]+0.010*[#   8]+0.005*[#   5]+0.005*[#  10]+0.003*[#   9]
          +0.002*[#  12]
    |psi|^2 = 0.050
==== e(  25) =     4.36634 eV ==== 
     psi = 0.011*[#   6]+0.005*[#   8]+0.004*[#  10]+0.003*[#   5]+0.002*[#  12]
          +0.002*[#   9]
    |psi|^2 = 0.026
==== e(  26) =     4.43709 eV ==== 
     psi = 0.001*[#  11]
    |psi|^2 = 0.002
==== e(  27) =     4.63137 eV ==== 
     psi = 0.040*[#   6]+0.009*[#  10]+0.007*[#   5]+0.006*[#   9]+0.004*[#   8]
          
    |psi|^2 = 0.067
==== e(  28) =     4.86828 eV ==== 
     psi = 0.011*[#   7]+0.001*[#  11]
    |psi|^2 = 0.012
==== e(  29) =     4.88133 eV ==== 
     psi = 0.007*[#   6]+0.002*[#   5]+0.001*[#  10]+0.001*[#   9]
    |psi|^2 = 0.011
==== e(  30) =     5.15164 eV ==== 
     psi = 0.008*[#   8]+0.006*[#   6]
    |psi|^2 = 0.016
==== e(  31) =     5.33839 eV ==== 
     psi = 0.004*[#   7]
    |psi|^2 = 0.004
==== e(  32) =     5.41576 eV ==== 
     psi = 0.004*[#   6]+0.001*[#   8]
    |psi|^2 = 0.008
==== e(  33) =     5.70544 eV ==== 
     psi = 0.001*[#   8]
    |psi|^2 = 0.003

 k =   0.0000000000  0.2500000000 -0.3500000000
==== e(   1) =   -80.47689 eV ==== 
     psi = 0.997*[#   1]+0.003*[#  10]
    |psi|^2 = 1.000
==== e(   2) =   -47.43163 eV ==== 
     psi = 0.990*[#   3]+0.010*[#   7]
    |psi|^2 = 1.000
==== e(   3) =   -47.43163 eV ==== 
     psi = 0.990*[#   4]+0.010*[#   8]
    |psi|^2 = 1.000
==== e(   4) =   -47.41540 eV ==== 
     psi = 0.985*[#   2]+0.011*[#   6]+0.002*[#  10]+0.001*[#   9]
    |psi|^2 = 1.000
==== e(   5) =   -14.12664 eV ==== 
     psi = 0.866*[#   9]+0.070*[#   6]+0.059*[#   5]+0.002*[#  10]
    |psi|^2 = 0.998
==== e(   6) =    -5.83520 eV ==== 
     psi = 0.593*[#  10]+0.358*[#   5]+0.040*[#   9]+0.001*[#   1]
    |psi|^2 = 0.992
==== e(   7) =    -4.05727 eV ==== 
     psi = 0.883*[#  12]+0.106*[#   8]
    |psi|^2 = 0.991
==== e(   8) =    -4.04094 eV ==== 
     psi = 0.890*[#  11]+0.101*[#   7]
    |psi|^2 = 0.992
==== e(   9) =    -3.61128 eV ==== 
     psi = 0.429*[#   5]+0.299*[#   6]+0.250*[#  10]
    |psi|^2 = 0.981
==== e(  10) =    -0.78138 eV ==== 
     psi = 0.612*[#   8]+0.079*[#  12]+0.007*[#   4]+0.002*[#   6]
    |psi|^2 = 0.700
==== e(  11) =    -0.43917 eV ==== 
     psi = 0.730*[#   7]+0.084*[#  11]+0.008*[#   3]
    |psi|^2 = 0.822
==== e(  12) =     0.23104 eV ==== 
     psi = 0.150*[#   6]+0.061*[#   5]+0.041*[#  10]+0.025*[#   9]+0.003*[#   2]
          +0.002*[#   8]
    |psi|^2 = 0.284
==== e(  13) =     0.74271 eV ==== 
     psi = 0.057*[#   6]+0.055*[#   8]+0.006*[#   5]+0.005*[#  12]+0.005*[#   9]
          +0.001*[#  10]
    |psi|^2 = 0.130
==== e(  14) =     1.68399 eV ==== 
     psi = 0.062*[#   8]+0.020*[#   6]+0.009*[#  12]+0.009*[#  10]+0.008*[#   5]
          +0.004*[#   9]
    |psi|^2 = 0.113
==== e(  15) =     1.76256 eV ==== 
     psi = 0.017*[#   8]+0.015*[#   6]+0.007*[#  10]+0.006*[#   5]+0.002*[#   9]
          
    |psi|^2 = 0.049
==== e(  16) =     2.30181 eV ==== 
     psi = 0.034*[#   6]+0.013*[#   5]+0.011*[#  10]+0.009*[#   8]+0.004*[#   9]
          +0.002*[#  12]
    |psi|^2 = 0.075
==== e(  17) =     2.49589 eV ==== 
     psi = 0.009*[#   7]
    |psi|^2 = 0.010
==== e(  18) =     2.71913 eV ==== 
     psi = 0.015*[#   6]+0.005*[#   8]+0.005*[#   5]+0.002*[#   9]
    |psi|^2 = 0.028
==== e(  19) =     3.04343 eV ==== 
     psi = 0.003*[#   6]+0.001*[#   8]
    |psi|^2 = 0.004
==== e(  20) =     3.09397 eV ==== 
     psi = 0.041*[#   7]+0.010*[#  11]
    |psi|^2 = 0.052
==== e(  21) =     3.33400 eV ==== 
     psi = 0.031*[#   6]+0.010*[#   5]+0.009*[#  10]+0.006*[#   9]+0.001*[#   8]
          
    |psi|^2 = 0.058
==== e(  22) =     3.42902 eV ==== 
     psi = 0.011*[#   8]+0.003*[#  12]+0.002*[#   6]
    |psi|^2 = 0.018
==== e(  23) =     3.86393 eV ==== 
     psi = 0.014*[#   7]+0.004*[#  11]
    |psi|^2 = 0.018
==== e(  24) =     4.20488 eV ==== 
     psi = 0.035*[#   6]+0.010*[#  10]+0.008*[#   5]+0.006*[#   9]+0.003*[#   8]
          
    |psi|^2 = 0.063
==== e(  25) =     4.26810 eV ==== 
     psi = 0.006*[#   6]+0.004*[#  10]+0.002*[#   8]+0.001*[#  12]+0.001*[#   9]
          
    |psi|^2 = 0.015
==== e(  26) =     4.33545 eV ==== 
 
    |psi|^2 = 0.000
==== e(  27) =     4.65223 eV ==== 
     psi = 0.025*[#   6]+0.006*[#  10]+0.005*[#   5]+0.004*[#   9]+0.003*[#   8]
          +0.001*[#  12]
    |psi|^2 = 0.043
==== e(  28) =     4.72788 eV ==== 
     psi = 0.003*[#   7]
    |psi|^2 = 0.004
==== e(  29) =     5.03211 eV ==== 
     psi = 0.032*[#   6]+0.005*[#  10]+0.005*[#   5]+0.004*[#   9]
    |psi|^2 = 0.047
==== e(  30) =     5.15411 eV ==== 
     psi = 0.019*[#   8]+0.006*[#   6]+0.002*[#  12]+0.001*[#   9]
    |psi|^2 = 0.029
==== e(  31) =     5.49459 eV ==== 
     psi = 0.010*[#   6]+0.004*[#   8]+0.002*[#   9]+0.002*[#  10]+0.001*[#   5]
          
    |psi|^2 = 0.020
==== e(  32) =     5.61941 eV ==== 
 
    |psi|^2 = 0.002
==== e(  33) =     5.87814 eV ==== 
     psi = 0.006*[#   6]+0.006*[#  10]+0.003*[#   8]+0.002*[#   9]+0.001*[#   5]
          
    |psi|^2 = 0.018

 k =   0.0000000000  0.2500000000 -0.1750000000
==== e(   1) =   -80.47689 eV ==== 
     psi = 0.997*[#   1]+0.003*[#  10]
    |psi|^2 = 1.000
==== e(   2) =   -47.43163 eV ==== 
     psi = 0.990*[#   3]+0.010*[#   7]
    |psi|^2 = 1.000
==== e(   3) =   -47.43163 eV ==== 
     psi = 0.990*[#   4]+0.010*[#   8]
    |psi|^2 = 1.000
==== e(   4) =   -47.41540 eV ==== 
     psi = 0.985*[#   2]+0.011*[#   6]+0.002*[#  10]+0.001*[#   9]
    |psi|^2 = 1.000
==== e(   5) =   -14.12664 eV ==== 
     psi = 0.866*[#   9]+0.070*[#   6]+0.059*[#   5]+0.002*[#  10]
    |psi|^2 = 0.998
==== e(   6) =    -5.83426 eV ==== 
     psi = 0.593*[#  10]+0.358*[#   5]+0.040*[#   9]+0.001*[#   1]
    |psi|^2 = 0.992
==== e(   7) =    -4.05741 eV ==== 
     psi = 0.883*[#  12]+0.107*[#   8]
    |psi|^2 = 0.991
==== e(   8) =    -4.04102 eV ==== 
     psi = 0.890*[#  11]+0.101*[#   7]
    |psi|^2 = 0.992
==== e(   9) =    -3.61720 eV ==== 
     psi = 0.429*[#   5]+0.299*[#   6]+0.250*[#  10]
    |psi|^2 = 0.980
==== e(  10) =    -0.77849 eV ==== 
     psi = 0.611*[#   8]+0.080*[#  12]+0.007*[#   4]+0.003*[#   6]
    |psi|^2 = 0.700
==== e(  11) =    -0.43633 eV ==== 
     psi = 0.730*[#   7]+0.085*[#  11]+0.008*[#   3]
    |psi|^2 = 0.823
==== e(  12) =     0.33774 eV ==== 
     psi = 0.140*[#   6]+0.056*[#   5]+0.037*[#  10]+0.023*[#   9]+0.009*[#   8]
          +0.003*[#   2]+0.001*[#  12]
    |psi|^2 = 0.268
==== e(  13) =     0.70168 eV ==== 
     psi = 0.078*[#   6]+0.049*[#   8]+0.017*[#   5]+0.009*[#  10]+0.009*[#   9]
          +0.004*[#  12]+0.001*[#   2]
    |psi|^2 = 0.168
==== e(  14) =     1.58906 eV ==== 
     psi = 0.044*[#   8]+0.010*[#   6]+0.005*[#   5]+0.005*[#  10]+0.004*[#  12]
          +0.002*[#   9]
    |psi|^2 = 0.070
==== e(  15) =     1.85610 eV ==== 
     psi = 0.040*[#   8]+0.018*[#   6]+0.009*[#   5]+0.009*[#  10]+0.005*[#  12]
          +0.003*[#   9]
    |psi|^2 = 0.085
==== e(  16) =     2.07687 eV ==== 
     psi = 0.024*[#   6]+0.007*[#   5]+0.005*[#  10]+0.004*[#   9]
    |psi|^2 = 0.042
==== e(  17) =     2.46800 eV ==== 
     psi = 0.011*[#   7]+0.001*[#  11]
    |psi|^2 = 0.012
==== e(  18) =     2.74459 eV ==== 
     psi = 0.043*[#   6]+0.009*[#   5]+0.006*[#  10]+0.006*[#   9]+0.004*[#   8]
          
    |psi|^2 = 0.070
==== e(  19) =     2.93627 eV ==== 
     psi = 0.013*[#   6]+0.009*[#  10]+0.004*[#   5]+0.002*[#   8]+0.003*[#   9]
          
    |psi|^2 = 0.031
==== e(  20) =     3.04623 eV ==== 
     psi = 0.037*[#   7]+0.009*[#  11]
    |psi|^2 = 0.046
==== e(  21) =     3.27681 eV ==== 
     psi = 0.009*[#   8]+0.002*[#  12]
    |psi|^2 = 0.014
==== e(  22) =     3.77547 eV ==== 
     psi = 0.005*[#   8]+0.004*[#   6]+0.002*[#   5]+0.002*[#  10]+0.001*[#  12]
          
    |psi|^2 = 0.014
==== e(  23) =     3.95649 eV ==== 
     psi = 0.009*[#   7]+0.003*[#  11]
    |psi|^2 = 0.012
==== e(  24) =     4.20306 eV ==== 
     psi = 0.023*[#   6]+0.010*[#   8]+0.005*[#   5]+0.005*[#  10]+0.003*[#   9]
          +0.002*[#  12]
    |psi|^2 = 0.050
==== e(  25) =     4.36634 eV ==== 
     psi = 0.011*[#   6]+0.005*[#   8]+0.004*[#  10]+0.003*[#   5]+0.002*[#  12]
          +0.002*[#   9]
    |psi|^2 = 0.026
==== e(  26) =     4.43709 eV ==== 
     psi = 0.001*[#  11]
    |psi|^2 = 0.002
==== e(  27) =     4.63137 eV ==== 
     psi = 0.040*[#   6]+0.009*[#  10]+0.007*[#   5]+0.006*[#   9]+0.004*[#   8]
          
    |psi|^2 = 0.067
==== e(  28) =     4.86828 eV ==== 
     psi = 0.011*[#   7]+0.001*[#  11]
    |psi|^2 = 0.012
==== e(  29) =     4.88133 eV ==== 
     psi = 0.007*[#   6]+0.002*[#   5]+0.001*[#  10]+0.001*[#   9]
    |psi|^2 = 0.011
==== e(  30) =     5.15164 eV ==== 
     psi = 0.008*[#   8]+0.006*[#   6]
    |psi|^2 = 0.016
==== e(  31) =     5.33839 eV ==== 
     psi = 0.004*[#   7]
    |psi|^2 = 0.004
==== e(  32) =     5.41576 eV ==== 
     psi = 0.004*[#   6]+0.001*[#   8]
    |psi|^2 = 0.008
==== e(  33) =     5.70544 eV ==== 
     psi = 0.001*[#   8]
    |psi|^2 = 0.003

 k =   0.0000000000 -0.5000000000  0.0000000000
==== e(   1) =   -80.47689 eV ==== 
     psi = 0.997*[#   1]+0.003*[#  10]
    |psi|^2 = 1.000
==== e(   2) =   -47.43163 eV ==== 
     psi = 0.990*[#   3]+0.010*[#   7]
    |psi|^2 = 1.000
==== e(   3) =   -47.43163 eV ==== 
     psi = 0.990*[#   4]+0.010*[#   8]
    |psi|^2 = 1.000
==== e(   4) =   -47.41540 eV ==== 
     psi = 0.985*[#   2]+0.011*[#   6]+0.002*[#  10]+0.001*[#   9]
    |psi|^2 = 1.000
==== e(   5) =   -14.12657 eV ==== 
     psi = 0.866*[#   9]+0.070*[#   6]+0.059*[#   5]+0.002*[#  10]
    |psi|^2 = 0.998
==== e(   6) =    -5.82969 eV ==== 
     psi = 0.595*[#  10]+0.355*[#   5]+0.040*[#   9]+0.001*[#   1]
    |psi|^2 = 0.992
==== e(   7) =    -4.07211 eV ==== 
     psi = 0.878*[#  12]+0.112*[#   8]
    |psi|^2 = 0.990
==== e(   8) =    -4.03980 eV ==== 
     psi = 0.891*[#  11]+0.101*[#   7]
    |psi|^2 = 0.992
==== e(   9) =    -3.60300 eV ==== 
     psi = 0.432*[#   5]+0.301*[#   6]+0.247*[#  10]
    |psi|^2 = 0.982
==== e(  10) =    -0.98099 eV ==== 
     psi = 0.587*[#   8]+0.084*[#  12]+0.007*[#   4]
    |psi|^2 = 0.678
==== e(  11) =    -0.40437 eV ==== 
     psi = 0.740*[#   7]+0.085*[#  11]+0.008*[#   3]
    |psi|^2 = 0.833
==== e(  12) =     0.76799 eV ==== 
     psi = 0.228*[#   6]+0.090*[#   5]+0.060*[#  10]+0.035*[#   9]+0.005*[#   2]
          
    |psi|^2 = 0.418
==== e(  13) =     0.93263 eV ==== 
     psi = 0.028*[#   6]+0.002*[#   9]
    |psi|^2 = 0.031
==== e(  14) =     1.17258 eV ==== 
     psi = 0.113*[#   8]+0.011*[#  12]+0.001*[#   4]
    |psi|^2 = 0.125
==== e(  15) =     1.93309 eV ==== 
     psi = 0.003*[#  12]
    |psi|^2 = 0.003
==== e(  16) =     1.96116 eV ==== 
     psi = 0.036*[#   6]+0.010*[#   5]+0.010*[#  10]+0.008*[#   9]
    |psi|^2 = 0.064
==== e(  17) =     2.18078 eV ==== 
 
    |psi|^2 = 0.000
==== e(  18) =     2.47731 eV ==== 
     psi = 0.046*[#   8]+0.006*[#  12]
    |psi|^2 = 0.052
==== e(  19) =     3.12825 eV ==== 
     psi = 0.042*[#   7]+0.009*[#  11]
    |psi|^2 = 0.052
==== e(  20) =     3.13740 eV ==== 
     psi = 0.058*[#   6]+0.014*[#  10]+0.011*[#   5]+0.008*[#   9]+0.001*[#   2]
          
    |psi|^2 = 0.093
==== e(  21) =     3.46457 eV ==== 
     psi = 0.045*[#   8]+0.005*[#  12]
    |psi|^2 = 0.050
==== e(  22) =     3.54558 eV ==== 
     psi = 0.005*[#  10]
    |psi|^2 = 0.006
==== e(  23) =     4.09299 eV ==== 
 
    |psi|^2 = 0.000
==== e(  24) =     4.09637 eV ==== 
     psi = 0.022*[#   6]+0.004*[#  10]+0.003*[#   9]+0.003*[#   5]
    |psi|^2 = 0.033
==== e(  25) =     4.23819 eV ==== 
     psi = 0.003*[#  12]
    |psi|^2 = 0.003
==== e(  26) =     4.41532 eV ==== 
 
    |psi|^2 = 0.000
==== e(  27) =     4.66280 eV ==== 
     psi = 0.009*[#   7]+0.005*[#  11]
    |psi|^2 = 0.014
==== e(  28) =     4.83557 eV ==== 
     psi = 0.005*[#   8]
    |psi|^2 = 0.006
==== e(  29) =     4.97037 eV ==== 
     psi = 0.002*[#   8]+0.002*[#  12]
    |psi|^2 = 0.004
==== e(  30) =     5.21879 eV ==== 
     psi = 0.011*[#   6]+0.004*[#  10]+0.003*[#   5]+0.001*[#   9]
    |psi|^2 = 0.020
==== e(  31) =     5.44712 eV ==== 
     psi = 0.017*[#   6]+0.009*[#   5]+0.003*[#  10]+0.002*[#   9]
    |psi|^2 = 0.031
==== e(  32) =     5.77810 eV ==== 
 
    |psi|^2 = 0.000
==== e(  33) =     5.78772 eV ==== 
     psi = 0.002*[#  11]
    |psi|^2 = 0.003

 k =   0.0000000000 -0.5000000000  0.1750000000
==== e(   1) =   -80.47689 eV ==== 
     psi = 0.997*[#   1]+0.003*[#  10]
    |psi|^2 = 1.000
==== e(   2) =   -47.43163 eV ==== 
     psi = 0.990*[#   3]+0.010*[#   7]
    |psi|^2 = 1.000
==== e(   3) =   -47.43163 eV ==== 
     psi = 0.990*[#   4]+0.010*[#   8]
    |psi|^2 = 1.000
==== e(   4) =   -47.41540 eV ==== 
     psi = 0.985*[#   2]+0.011*[#   6]+0.002*[#  10]+0.001*[#   9]
    |psi|^2 = 1.000
==== e(   5) =   -14.12657 eV ==== 
     psi = 0.866*[#   9]+0.070*[#   6]+0.059*[#   5]+0.002*[#  10]
    |psi|^2 = 0.998
==== e(   6) =    -5.83060 eV ==== 
     psi = 0.595*[#  10]+0.355*[#   5]+0.040*[#   9]+0.001*[#   1]
    |psi|^2 = 0.992
==== e(   7) =    -4.07193 eV ==== 
     psi = 0.878*[#  12]+0.111*[#   8]
    |psi|^2 = 0.990
==== e(   8) =    -4.03973 eV ==== 
     psi = 0.891*[#  11]+0.101*[#   7]
    |psi|^2 = 0.992
==== e(   9) =    -3.59741 eV ==== 
     psi = 0.431*[#   5]+0.302*[#   6]+0.248*[#  10]
    |psi|^2 = 0.983
==== e(  10) =    -0.98473 eV ==== 
     psi = 0.587*[#   8]+0.083*[#  12]+0.007*[#   4]
    |psi|^2 = 0.677
==== e(  11) =    -0.40711 eV ==== 
     psi = 0.739*[#   7]+0.085*[#  11]+0.008*[#   3]
    |psi|^2 = 0.832
==== e(  12) =     0.58318 eV ==== 
     psi = 0.189*[#   6]+0.074*[#   5]+0.051*[#  10]+0.030*[#   9]+0.004*[#   2]
          
    |psi|^2 = 0.350
==== e(  13) =     1.03513 eV ==== 
     psi = 0.051*[#   6]+0.008*[#   5]+0.005*[#   9]+0.004*[#  10]
    |psi|^2 = 0.069
==== e(  14) =     1.19896 eV ==== 
     psi = 0.090*[#   8]+0.012*[#  12]+0.001*[#   4]
    |psi|^2 = 0.102
==== e(  15) =     1.82515 eV ==== 
     psi = 0.057*[#   8]+0.005*[#  12]
    |psi|^2 = 0.063
==== e(  16) =     2.19630 eV ==== 
 
    |psi|^2 = 0.000
==== e(  17) =     2.20214 eV ==== 
     psi = 0.047*[#   6]+0.017*[#   5]+0.015*[#  10]+0.008*[#   9]+0.001*[#   2]
          
    |psi|^2 = 0.088
==== e(  18) =     2.67338 eV ==== 
     psi = 0.016*[#   8]+0.004*[#  12]
    |psi|^2 = 0.020
==== e(  19) =     3.00656 eV ==== 
     psi = 0.052*[#   6]+0.012*[#  10]+0.011*[#   5]+0.007*[#   9]+0.001*[#   2]
          
    |psi|^2 = 0.084
==== e(  20) =     3.21916 eV ==== 
     psi = 0.047*[#   7]+0.011*[#  11]
    |psi|^2 = 0.058
==== e(  21) =     3.49009 eV ==== 
     psi = 0.002*[#   6]+0.001*[#  10]
    |psi|^2 = 0.004
==== e(  22) =     3.51096 eV ==== 
     psi = 0.034*[#   8]+0.004*[#  12]
    |psi|^2 = 0.038
==== e(  23) =     3.78398 eV ==== 
 
    |psi|^2 = 0.000
==== e(  24) =     4.16856 eV ==== 
     psi = 0.009*[#   8]+0.002*[#  12]
    |psi|^2 = 0.011
==== e(  25) =     4.28612 eV ==== 
     psi = 0.001*[#   8]
    |psi|^2 = 0.002
==== e(  26) =     4.37782 eV ==== 
     psi = 0.009*[#   6]+0.004*[#  10]+0.003*[#   5]+0.001*[#   9]
    |psi|^2 = 0.017
==== e(  27) =     4.44100 eV ==== 
     psi = 0.008*[#   7]+0.004*[#  11]
    |psi|^2 = 0.012
==== e(  28) =     4.81928 eV ==== 
     psi = 0.063*[#   6]+0.015*[#  10]+0.013*[#   5]+0.011*[#   9]+0.001*[#   2]
          
    |psi|^2 = 0.103
==== e(  29) =     4.93667 eV ==== 
 
    |psi|^2 = 0.000
==== e(  30) =     5.29082 eV ==== 
     psi = 0.004*[#   8]+0.001*[#  12]
    |psi|^2 = 0.005
==== e(  31) =     5.40425 eV ==== 
     psi = 0.010*[#   6]+0.004*[#  10]+0.002*[#   9]
    |psi|^2 = 0.017
==== e(  32) =     5.65746 eV ==== 
     psi = 0.004*[#   7]+0.001*[#  11]
    |psi|^2 = 0.005
==== e(  33) =     5.91619 eV ==== 
     psi = 0.007*[#   8]+0.003*[#  12]
    |psi|^2 = 0.010

 k =   0.0000000000 -0.5000000000 -0.3500000000
==== e(   1) =   -80.47689 eV ==== 
     psi = 0.997*[#   1]+0.003*[#  10]
    |psi|^2 = 1.000
==== e(   2) =   -47.43163 eV ==== 
     psi = 0.990*[#   4]+0.010*[#   8]
    |psi|^2 = 1.000
==== e(   3) =   -47.43163 eV ==== 
     psi = 0.990*[#   3]+0.010*[#   7]
    |psi|^2 = 1.000
==== e(   4) =   -47.41540 eV ==== 
     psi = 0.985*[#   2]+0.011*[#   6]+0.002*[#  10]+0.001*[#   9]
    |psi|^2 = 1.000
==== e(   5) =   -14.12657 eV ==== 
     psi = 0.866*[#   9]+0.070*[#   6]+0.059*[#   5]+0.002*[#  10]
    |psi|^2 = 0.998
==== e(   6) =    -5.83151 eV ==== 
     psi = 0.595*[#  10]+0.355*[#   5]+0.040*[#   9]+0.001*[#   1]
    |psi|^2 = 0.992
==== e(   7) =    -4.07175 eV ==== 
     psi = 0.879*[#  12]+0.111*[#   8]
    |psi|^2 = 0.990
==== e(   8) =    -4.03965 eV ==== 
     psi = 0.891*[#  11]+0.101*[#   7]
    |psi|^2 = 0.992
==== e(   9) =    -3.59179 eV ==== 
     psi = 0.431*[#   5]+0.303*[#   6]+0.248*[#  10]
    |psi|^2 = 0.984
==== e(  10) =    -0.98845 eV ==== 
     psi = 0.588*[#   8]+0.082*[#  12]+0.007*[#   4]
    |psi|^2 = 0.677
==== e(  11) =    -0.40984 eV ==== 
     psi = 0.738*[#   7]+0.084*[#  11]+0.008*[#   3]
    |psi|^2 = 0.831
==== e(  12) =     0.47117 eV ==== 
     psi = 0.187*[#   6]+0.074*[#   5]+0.051*[#  10]+0.031*[#   9]+0.004*[#   2]
          
    |psi|^2 = 0.348
==== e(  13) =     1.07836 eV ==== 
     psi = 0.044*[#   6]+0.004*[#   5]+0.003*[#   9]
    |psi|^2 = 0.053
==== e(  14) =     1.23055 eV ==== 
     psi = 0.059*[#   8]+0.012*[#  12]
    |psi|^2 = 0.072
==== e(  15) =     1.73577 eV ==== 
     psi = 0.104*[#   8]+0.006*[#  12]+0.001*[#   4]
    |psi|^2 = 0.111
==== e(  16) =     2.21279 eV ==== 
 
    |psi|^2 = 0.000
==== e(  17) =     2.45980 eV ==== 
     psi = 0.053*[#   6]+0.022*[#  10]+0.021*[#   5]+0.007*[#   9]+0.001*[#   2]
          
    |psi|^2 = 0.104
==== e(  18) =     2.91818 eV ==== 
     psi = 0.009*[#   8]+0.004*[#  12]
    |psi|^2 = 0.013
==== e(  19) =     2.96728 eV ==== 
     psi = 0.038*[#   6]+0.012*[#   5]+0.005*[#   9]+0.003*[#  10]
    |psi|^2 = 0.059
==== e(  20) =     3.34057 eV ==== 
     psi = 0.055*[#   7]+0.013*[#  11]
    |psi|^2 = 0.069
==== e(  21) =     3.39913 eV ==== 
     psi = 0.013*[#   6]+0.002*[#   9]
    |psi|^2 = 0.017
==== e(  22) =     3.48834 eV ==== 
     psi = 0.001*[#   8]
    |psi|^2 = 0.002
==== e(  23) =     3.62808 eV ==== 
 
    |psi|^2 = 0.000
==== e(  24) =     4.00650 eV ==== 
     psi = 0.004*[#   8]
    |psi|^2 = 0.004
==== e(  25) =     4.07591 eV ==== 
     psi = 0.029*[#   8]+0.004*[#  12]
    |psi|^2 = 0.034
==== e(  26) =     4.18881 eV ==== 
     psi = 0.029*[#   6]+0.012*[#  10]+0.008*[#   5]+0.007*[#   9]
    |psi|^2 = 0.056
==== e(  27) =     4.20761 eV ==== 
     psi = 0.002*[#   7]+0.001*[#  11]
    |psi|^2 = 0.003
==== e(  28) =     5.11433 eV ==== 
     psi = 0.061*[#   6]+0.020*[#  10]+0.009*[#   9]+0.008*[#   5]+0.001*[#   2]
          
    |psi|^2 = 0.100
==== e(  29) =     5.36378 eV ==== 
     psi = 0.007*[#   8]+0.004*[#  12]
    |psi|^2 = 0.012
==== e(  30) =     5.47897 eV ==== 
     psi = 0.023*[#   6]+0.004*[#   5]+0.003*[#   9]+0.003*[#  10]
    |psi|^2 = 0.034
==== e(  31) =     5.60981 eV ==== 
     psi = 0.004*[#   7]
    |psi|^2 = 0.005
==== e(  32) =     5.65167 eV ==== 
 
    |psi|^2 = 0.000
==== e(  33) =     5.69676 eV ==== 
     psi = 0.008*[#   6]+0.001*[#   9]
    |psi|^2 = 0.010

 k =   0.0000000000 -0.5000000000 -0.1750000000
==== e(   1) =   -80.47689 eV ==== 
     psi = 0.997*[#   1]+0.003*[#  10]
    |psi|^2 = 1.000
==== e(   2) =   -47.43163 eV ==== 
     psi = 0.990*[#   3]+0.010*[#   7]
    |psi|^2 = 1.000
==== e(   3) =   -47.43163 eV ==== 
     psi = 0.990*[#   4]+0.010*[#   8]
    |psi|^2 = 1.000
==== e(   4) =   -47.41540 eV ==== 
     psi = 0.985*[#   2]+0.011*[#   6]+0.002*[#  10]+0.001*[#   9]
    |psi|^2 = 1.000
==== e(   5) =   -14.12657 eV ==== 
     psi = 0.866*[#   9]+0.070*[#   6]+0.059*[#   5]+0.002*[#  10]
    |psi|^2 = 0.998
==== e(   6) =    -5.83060 eV ==== 
     psi = 0.595*[#  10]+0.355*[#   5]+0.040*[#   9]+0.001*[#   1]
    |psi|^2 = 0.992
==== e(   7) =    -4.07193 eV ==== 
     psi = 0.878*[#  12]+0.111*[#   8]
    |psi|^2 = 0.990
==== e(   8) =    -4.03973 eV ==== 
     psi = 0.891*[#  11]+0.101*[#   7]
    |psi|^2 = 0.992
==== e(   9) =    -3.59741 eV ==== 
     psi = 0.431*[#   5]+0.302*[#   6]+0.248*[#  10]
    |psi|^2 = 0.983
==== e(  10) =    -0.98473 eV ==== 
     psi = 0.587*[#   8]+0.083*[#  12]+0.007*[#   4]
    |psi|^2 = 0.677
==== e(  11) =    -0.40711 eV ==== 
     psi = 0.739*[#   7]+0.085*[#  11]+0.008*[#   3]
    |psi|^2 = 0.832
==== e(  12) =     0.58318 eV ==== 
     psi = 0.189*[#   6]+0.074*[#   5]+0.051*[#  10]+0.030*[#   9]+0.004*[#   2]
          
    |psi|^2 = 0.350
==== e(  13) =     1.03513 eV ==== 
     psi = 0.051*[#   6]+0.008*[#   5]+0.005*[#   9]+0.004*[#  10]
    |psi|^2 = 0.069
==== e(  14) =     1.19896 eV ==== 
     psi = 0.090*[#   8]+0.012*[#  12]+0.001*[#   4]
    |psi|^2 = 0.102
==== e(  15) =     1.82515 eV ==== 
     psi = 0.057*[#   8]+0.005*[#  12]
    |psi|^2 = 0.063
==== e(  16) =     2.19630 eV ==== 
 
    |psi|^2 = 0.000
==== e(  17) =     2.20214 eV ==== 
     psi = 0.047*[#   6]+0.017*[#   5]+0.015*[#  10]+0.008*[#   9]+0.001*[#   2]
          
    |psi|^2 = 0.088
==== e(  18) =     2.67338 eV ==== 
     psi = 0.016*[#   8]+0.004*[#  12]
    |psi|^2 = 0.020
==== e(  19) =     3.00656 eV ==== 
     psi = 0.052*[#   6]+0.012*[#  10]+0.011*[#   5]+0.007*[#   9]+0.001*[#   2]
          
    |psi|^2 = 0.084
==== e(  20) =     3.21916 eV ==== 
     psi = 0.047*[#   7]+0.011*[#  11]
    |psi|^2 = 0.058
==== e(  21) =     3.49009 eV ==== 
     psi = 0.002*[#   6]+0.001*[#  10]
    |psi|^2 = 0.004
==== e(  22) =     3.51096 eV ==== 
     psi = 0.034*[#   8]+0.004*[#  12]
    |psi|^2 = 0.038
==== e(  23) =     3.78398 eV ==== 
 
    |psi|^2 = 0.000
==== e(  24) =     4.16856 eV ==== 
     psi = 0.009*[#   8]+0.002*[#  12]
    |psi|^2 = 0.011
==== e(  25) =     4.28612 eV ==== 
     psi = 0.001*[#   8]
    |psi|^2 = 0.002
==== e(  26) =     4.37782 eV ==== 
     psi = 0.009*[#   6]+0.004*[#  10]+0.003*[#   5]+0.001*[#   9]
    |psi|^2 = 0.017
==== e(  27) =     4.44100 eV ==== 
     psi = 0.008*[#   7]+0.004*[#  11]
    |psi|^2 = 0.012
==== e(  28) =     4.81928 eV ==== 
     psi = 0.063*[#   6]+0.015*[#  10]+0.013*[#   5]+0.011*[#   9]+0.001*[#   2]
          
    |psi|^2 = 0.103
==== e(  29) =     4.93667 eV ==== 
 
    |psi|^2 = 0.000
==== e(  30) =     5.29082 eV ==== 
     psi = 0.004*[#   8]+0.001*[#  12]
    |psi|^2 = 0.005
==== e(  31) =     5.40425 eV ==== 
     psi = 0.010*[#   6]+0.004*[#  10]+0.002*[#   9]
    |psi|^2 = 0.017
==== e(  32) =     5.65746 eV ==== 
     psi = 0.004*[#   7]+0.001*[#  11]
    |psi|^2 = 0.005
==== e(  33) =     5.91619 eV ==== 
     psi = 0.007*[#   8]+0.003*[#  12]
    |psi|^2 = 0.010

 k =   0.0000000000 -0.2500000000  0.0000000000
==== e(   1) =   -80.47689 eV ==== 
     psi = 0.997*[#   1]+0.003*[#  10]
    |psi|^2 = 1.000
==== e(   2) =   -47.43163 eV ==== 
     psi = 0.990*[#   3]+0.010*[#   7]
    |psi|^2 = 1.000
==== e(   3) =   -47.43163 eV ==== 
     psi = 0.990*[#   4]+0.010*[#   8]
    |psi|^2 = 1.000
==== e(   4) =   -47.41540 eV ==== 
     psi = 0.985*[#   2]+0.011*[#   6]+0.002*[#  10]+0.001*[#   9]
    |psi|^2 = 1.000
==== e(   5) =   -14.12664 eV ==== 
     psi = 0.866*[#   9]+0.070*[#   6]+0.059*[#   5]+0.002*[#  10]
    |psi|^2 = 0.998
==== e(   6) =    -5.83331 eV ==== 
     psi = 0.593*[#  10]+0.357*[#   5]+0.040*[#   9]+0.001*[#   1]
    |psi|^2 = 0.992
==== e(   7) =    -4.05755 eV ==== 
     psi = 0.883*[#  12]+0.107*[#   8]
    |psi|^2 = 0.991
==== e(   8) =    -4.04109 eV ==== 
     psi = 0.890*[#  11]+0.101*[#   7]
    |psi|^2 = 0.992
==== e(   9) =    -3.62308 eV ==== 
     psi = 0.430*[#   5]+0.298*[#   6]+0.249*[#  10]
    |psi|^2 = 0.979
==== e(  10) =    -0.77560 eV ==== 
     psi = 0.610*[#   8]+0.080*[#  12]+0.007*[#   4]+0.003*[#   6]
    |psi|^2 = 0.700
==== e(  11) =    -0.43347 eV ==== 
     psi = 0.731*[#   7]+0.085*[#  11]+0.008*[#   3]
    |psi|^2 = 0.824
==== e(  12) =     0.53878 eV ==== 
     psi = 0.055*[#   8]+0.027*[#   6]+0.005*[#  12]+0.002*[#   9]
    |psi|^2 = 0.090
==== e(  13) =     0.58296 eV ==== 
     psi = 0.210*[#   6]+0.082*[#   5]+0.053*[#  10]+0.032*[#   9]+0.005*[#   2]
          
    |psi|^2 = 0.382
==== e(  14) =     1.52327 eV ==== 
     psi = 0.020*[#   8]+0.004*[#   6]+0.003*[#  10]+0.003*[#   5]+0.001*[#   9]
          +0.001*[#  12]
    |psi|^2 = 0.033
==== e(  15) =     1.70309 eV ==== 
     psi = 0.064*[#   8]+0.007*[#  12]+0.007*[#   6]+0.002*[#   5]+0.002*[#   9]
          +0.001*[#  10]
    |psi|^2 = 0.084
==== e(  16) =     2.19890 eV ==== 
     psi = 0.006*[#   6]+0.005*[#  10]+0.003*[#   5]+0.002*[#   9]+0.001*[#  12]
          
    |psi|^2 = 0.018
==== e(  17) =     2.44186 eV ==== 
     psi = 0.013*[#   7]+0.001*[#  11]
    |psi|^2 = 0.014
==== e(  18) =     2.54114 eV ==== 
     psi = 0.064*[#   6]+0.013*[#   5]+0.012*[#  10]+0.009*[#   9]+0.001*[#   2]
          
    |psi|^2 = 0.102
==== e(  19) =     3.00108 eV ==== 
     psi = 0.033*[#   7]+0.008*[#  11]
    |psi|^2 = 0.041
==== e(  20) =     3.14266 eV ==== 
     psi = 0.016*[#   6]+0.011*[#  10]+0.004*[#   5]+0.003*[#   9]
    |psi|^2 = 0.036
==== e(  21) =     3.16433 eV ==== 
     psi = 0.015*[#   8]+0.004*[#   6]+0.002*[#  12]
    |psi|^2 = 0.024
==== e(  22) =     3.78867 eV ==== 
     psi = 0.023*[#   6]+0.005*[#  10]+0.004*[#   9]+0.003*[#   8]+0.003*[#   5]
          
    |psi|^2 = 0.039
==== e(  23) =     4.11442 eV ==== 
     psi = 0.005*[#   7]+0.003*[#  11]
    |psi|^2 = 0.008
==== e(  24) =     4.13733 eV ==== 
     psi = 0.020*[#   8]+0.006*[#  12]
    |psi|^2 = 0.028
==== e(  25) =     4.46778 eV ==== 
     psi = 0.002*[#   8]
    |psi|^2 = 0.004
==== e(  26) =     4.47119 eV ==== 
     psi = 0.001*[#  11]
    |psi|^2 = 0.002
==== e(  27) =     4.75244 eV ==== 
     psi = 0.027*[#   6]+0.008*[#   5]+0.004*[#  10]+0.003*[#   9]
    |psi|^2 = 0.042
==== e(  28) =     4.95086 eV ==== 
     psi = 0.012*[#   7]
    |psi|^2 = 0.013
==== e(  29) =     5.09199 eV ==== 
     psi = 0.002*[#   8]
    |psi|^2 = 0.004
==== e(  30) =     5.19252 eV ==== 
     psi = 0.012*[#   7]+0.002*[#  11]
    |psi|^2 = 0.015
==== e(  31) =     5.28702 eV ==== 
     psi = 0.003*[#   6]+0.002*[#   5]+0.001*[#  10]
    |psi|^2 = 0.008
==== e(  32) =     5.55394 eV ==== 
     psi = 0.012*[#   6]+0.003*[#   5]+0.001*[#   8]+0.001*[#   9]+0.001*[#  10]
          
    |psi|^2 = 0.019
==== e(  33) =     5.62064 eV ==== 
     psi = 0.010*[#   8]+0.002*[#   6]
    |psi|^2 = 0.013

 k =   0.0000000000 -0.2500000000  0.1750000000
==== e(   1) =   -80.47689 eV ==== 
     psi = 0.997*[#   1]+0.003*[#  10]
    |psi|^2 = 1.000
==== e(   2) =   -47.43163 eV ==== 
     psi = 0.990*[#   3]+0.010*[#   7]
    |psi|^2 = 1.000
==== e(   3) =   -47.43163 eV ==== 
     psi = 0.990*[#   4]+0.010*[#   8]
    |psi|^2 = 1.000
==== e(   4) =   -47.41540 eV ==== 
     psi = 0.985*[#   2]+0.011*[#   6]+0.002*[#  10]+0.001*[#   9]
    |psi|^2 = 1.000
==== e(   5) =   -14.12664 eV ==== 
     psi = 0.866*[#   9]+0.070*[#   6]+0.059*[#   5]+0.002*[#  10]
    |psi|^2 = 0.998
==== e(   6) =    -5.83426 eV ==== 
     psi = 0.593*[#  10]+0.358*[#   5]+0.040*[#   9]+0.001*[#   1]
    |psi|^2 = 0.992
==== e(   7) =    -4.05741 eV ==== 
     psi = 0.883*[#  12]+0.107*[#   8]
    |psi|^2 = 0.991
==== e(   8) =    -4.04102 eV ==== 
     psi = 0.890*[#  11]+0.101*[#   7]
    |psi|^2 = 0.992
==== e(   9) =    -3.61720 eV ==== 
     psi = 0.429*[#   5]+0.299*[#   6]+0.250*[#  10]
    |psi|^2 = 0.980
==== e(  10) =    -0.77849 eV ==== 
     psi = 0.611*[#   8]+0.080*[#  12]+0.007*[#   4]+0.003*[#   6]
    |psi|^2 = 0.700
==== e(  11) =    -0.43633 eV ==== 
     psi = 0.730*[#   7]+0.085*[#  11]+0.008*[#   3]
    |psi|^2 = 0.823
==== e(  12) =     0.33774 eV ==== 
     psi = 0.140*[#   6]+0.056*[#   5]+0.037*[#  10]+0.023*[#   9]+0.009*[#   8]
          +0.003*[#   2]+0.001*[#  12]
    |psi|^2 = 0.268
==== e(  13) =     0.70168 eV ==== 
     psi = 0.078*[#   6]+0.049*[#   8]+0.017*[#   5]+0.009*[#  10]+0.009*[#   9]
          +0.004*[#  12]+0.001*[#   2]
    |psi|^2 = 0.168
==== e(  14) =     1.58906 eV ==== 
     psi = 0.044*[#   8]+0.010*[#   6]+0.005*[#   5]+0.005*[#  10]+0.004*[#  12]
          +0.002*[#   9]
    |psi|^2 = 0.070
==== e(  15) =     1.85610 eV ==== 
     psi = 0.040*[#   8]+0.018*[#   6]+0.009*[#   5]+0.009*[#  10]+0.005*[#  12]
          +0.003*[#   9]
    |psi|^2 = 0.085
==== e(  16) =     2.07687 eV ==== 
     psi = 0.024*[#   6]+0.007*[#   5]+0.005*[#  10]+0.004*[#   9]
    |psi|^2 = 0.042
==== e(  17) =     2.46800 eV ==== 
     psi = 0.011*[#   7]+0.001*[#  11]
    |psi|^2 = 0.012
==== e(  18) =     2.74459 eV ==== 
     psi = 0.043*[#   6]+0.009*[#   5]+0.006*[#  10]+0.006*[#   9]+0.004*[#   8]
          
    |psi|^2 = 0.070
==== e(  19) =     2.93627 eV ==== 
     psi = 0.013*[#   6]+0.009*[#  10]+0.004*[#   5]+0.002*[#   8]+0.003*[#   9]
          
    |psi|^2 = 0.031
==== e(  20) =     3.04623 eV ==== 
     psi = 0.037*[#   7]+0.009*[#  11]
    |psi|^2 = 0.046
==== e(  21) =     3.27681 eV ==== 
     psi = 0.009*[#   8]+0.002*[#  12]
    |psi|^2 = 0.014
==== e(  22) =     3.77547 eV ==== 
     psi = 0.005*[#   8]+0.004*[#   6]+0.002*[#   5]+0.002*[#  10]+0.001*[#  12]
          
    |psi|^2 = 0.014
==== e(  23) =     3.95649 eV ==== 
     psi = 0.009*[#   7]+0.003*[#  11]
    |psi|^2 = 0.012
==== e(  24) =     4.20306 eV ==== 
     psi = 0.023*[#   6]+0.010*[#   8]+0.005*[#   5]+0.005*[#  10]+0.003*[#   9]
          +0.002*[#  12]
    |psi|^2 = 0.050
==== e(  25) =     4.36634 eV ==== 
     psi = 0.011*[#   6]+0.005*[#   8]+0.004*[#  10]+0.003*[#   5]+0.002*[#  12]
          +0.002*[#   9]
    |psi|^2 = 0.026
==== e(  26) =     4.43709 eV ==== 
     psi = 0.001*[#  11]
    |psi|^2 = 0.002
==== e(  27) =     4.63137 eV ==== 
     psi = 0.040*[#   6]+0.009*[#  10]+0.007*[#   5]+0.006*[#   9]+0.004*[#   8]
          
    |psi|^2 = 0.067
==== e(  28) =     4.86828 eV ==== 
     psi = 0.011*[#   7]+0.001*[#  11]
    |psi|^2 = 0.012
==== e(  29) =     4.88133 eV ==== 
     psi = 0.007*[#   6]+0.002*[#   5]+0.001*[#  10]+0.001*[#   9]
    |psi|^2 = 0.011
==== e(  30) =     5.15164 eV ==== 
     psi = 0.008*[#   8]+0.006*[#   6]
    |psi|^2 = 0.016
==== e(  31) =     5.33839 eV ==== 
     psi = 0.004*[#   7]
    |psi|^2 = 0.004
==== e(  32) =     5.41576 eV ==== 
     psi = 0.004*[#   6]+0.001*[#   8]
    |psi|^2 = 0.008
==== e(  33) =     5.70544 eV ==== 
     psi = 0.001*[#   8]
    |psi|^2 = 0.003

 k =   0.0000000000 -0.2500000000 -0.3500000000
==== e(   1) =   -80.47689 eV ==== 
     psi = 0.997*[#   1]+0.003*[#  10]
    |psi|^2 = 1.000
==== e(   2) =   -47.43163 eV ==== 
     psi = 0.990*[#   3]+0.010*[#   7]
    |psi|^2 = 1.000
==== e(   3) =   -47.43163 eV ==== 
     psi = 0.990*[#   4]+0.010*[#   8]
    |psi|^2 = 1.000
==== e(   4) =   -47.41540 eV ==== 
     psi = 0.985*[#   2]+0.011*[#   6]+0.002*[#  10]+0.001*[#   9]
    |psi|^2 = 1.000
==== e(   5) =   -14.12664 eV ==== 
     psi = 0.866*[#   9]+0.070*[#   6]+0.059*[#   5]+0.002*[#  10]
    |psi|^2 = 0.998
==== e(   6) =    -5.83520 eV ==== 
     psi = 0.593*[#  10]+0.358*[#   5]+0.040*[#   9]+0.001*[#   1]
    |psi|^2 = 0.992
==== e(   7) =    -4.05727 eV ==== 
     psi = 0.883*[#  12]+0.106*[#   8]
    |psi|^2 = 0.991
==== e(   8) =    -4.04094 eV ==== 
     psi = 0.890*[#  11]+0.101*[#   7]
    |psi|^2 = 0.992
==== e(   9) =    -3.61128 eV ==== 
     psi = 0.429*[#   5]+0.299*[#   6]+0.250*[#  10]
    |psi|^2 = 0.981
==== e(  10) =    -0.78138 eV ==== 
     psi = 0.612*[#   8]+0.079*[#  12]+0.007*[#   4]+0.002*[#   6]
    |psi|^2 = 0.700
==== e(  11) =    -0.43917 eV ==== 
     psi = 0.730*[#   7]+0.084*[#  11]+0.008*[#   3]
    |psi|^2 = 0.822
==== e(  12) =     0.23104 eV ==== 
     psi = 0.150*[#   6]+0.061*[#   5]+0.041*[#  10]+0.025*[#   9]+0.003*[#   2]
          +0.002*[#   8]
    |psi|^2 = 0.284
==== e(  13) =     0.74271 eV ==== 
     psi = 0.057*[#   6]+0.055*[#   8]+0.006*[#   5]+0.005*[#  12]+0.005*[#   9]
          +0.001*[#  10]
    |psi|^2 = 0.130
==== e(  14) =     1.68399 eV ==== 
     psi = 0.062*[#   8]+0.020*[#   6]+0.009*[#  12]+0.009*[#  10]+0.008*[#   5]
          +0.004*[#   9]
    |psi|^2 = 0.113
==== e(  15) =     1.76256 eV ==== 
     psi = 0.017*[#   8]+0.015*[#   6]+0.007*[#  10]+0.006*[#   5]+0.002*[#   9]
          
    |psi|^2 = 0.049
==== e(  16) =     2.30181 eV ==== 
     psi = 0.034*[#   6]+0.013*[#   5]+0.011*[#  10]+0.009*[#   8]+0.004*[#   9]
          +0.002*[#  12]
    |psi|^2 = 0.075
==== e(  17) =     2.49589 eV ==== 
     psi = 0.009*[#   7]
    |psi|^2 = 0.010
==== e(  18) =     2.71913 eV ==== 
     psi = 0.015*[#   6]+0.005*[#   8]+0.005*[#   5]+0.002*[#   9]
    |psi|^2 = 0.028
==== e(  19) =     3.04343 eV ==== 
     psi = 0.003*[#   6]+0.001*[#   8]
    |psi|^2 = 0.004
==== e(  20) =     3.09397 eV ==== 
     psi = 0.041*[#   7]+0.010*[#  11]
    |psi|^2 = 0.052
==== e(  21) =     3.33400 eV ==== 
     psi = 0.031*[#   6]+0.010*[#   5]+0.009*[#  10]+0.006*[#   9]+0.001*[#   8]
          
    |psi|^2 = 0.058
==== e(  22) =     3.42902 eV ==== 
     psi = 0.011*[#   8]+0.003*[#  12]+0.002*[#   6]
    |psi|^2 = 0.018
==== e(  23) =     3.86393 eV ==== 
     psi = 0.014*[#   7]+0.004*[#  11]
    |psi|^2 = 0.018
==== e(  24) =     4.20488 eV ==== 
     psi = 0.035*[#   6]+0.010*[#  10]+0.008*[#   5]+0.006*[#   9]+0.003*[#   8]
          
    |psi|^2 = 0.063
==== e(  25) =     4.26810 eV ==== 
     psi = 0.006*[#   6]+0.004*[#  10]+0.002*[#   8]+0.001*[#  12]+0.001*[#   9]
          
    |psi|^2 = 0.015
==== e(  26) =     4.33545 eV ==== 
 
    |psi|^2 = 0.000
==== e(  27) =     4.65223 eV ==== 
     psi = 0.025*[#   6]+0.006*[#  10]+0.005*[#   5]+0.004*[#   9]+0.003*[#   8]
          +0.001*[#  12]
    |psi|^2 = 0.043
==== e(  28) =     4.72788 eV ==== 
     psi = 0.003*[#   7]
    |psi|^2 = 0.004
==== e(  29) =     5.03211 eV ==== 
     psi = 0.032*[#   6]+0.005*[#  10]+0.005*[#   5]+0.004*[#   9]
    |psi|^2 = 0.047
==== e(  30) =     5.15411 eV ==== 
     psi = 0.019*[#   8]+0.006*[#   6]+0.002*[#  12]+0.001*[#   9]
    |psi|^2 = 0.029
==== e(  31) =     5.49459 eV ==== 
     psi = 0.010*[#   6]+0.004*[#   8]+0.002*[#   9]+0.002*[#  10]+0.001*[#   5]
          
    |psi|^2 = 0.020
==== e(  32) =     5.61941 eV ==== 
 
    |psi|^2 = 0.002
==== e(  33) =     5.87814 eV ==== 
     psi = 0.006*[#   6]+0.006*[#  10]+0.003*[#   8]+0.002*[#   9]+0.001*[#   5]
          
    |psi|^2 = 0.018

 k =   0.0000000000 -0.2500000000 -0.1750000000
==== e(   1) =   -80.47689 eV ==== 
     psi = 0.997*[#   1]+0.003*[#  10]
    |psi|^2 = 1.000
==== e(   2) =   -47.43163 eV ==== 
     psi = 0.990*[#   3]+0.010*[#   7]
    |psi|^2 = 1.000
==== e(   3) =   -47.43163 eV ==== 
     psi = 0.990*[#   4]+0.010*[#   8]
    |psi|^2 = 1.000
==== e(   4) =   -47.41540 eV ==== 
     psi = 0.985*[#   2]+0.011*[#   6]+0.002*[#  10]+0.001*[#   9]
    |psi|^2 = 1.000
==== e(   5) =   -14.12664 eV ==== 
     psi = 0.866*[#   9]+0.070*[#   6]+0.059*[#   5]+0.002*[#  10]
    |psi|^2 = 0.998
==== e(   6) =    -5.83426 eV ==== 
     psi = 0.593*[#  10]+0.358*[#   5]+0.040*[#   9]+0.001*[#   1]
    |psi|^2 = 0.992
==== e(   7) =    -4.05741 eV ==== 
     psi = 0.883*[#  12]+0.107*[#   8]
    |psi|^2 = 0.991
==== e(   8) =    -4.04102 eV ==== 
     psi = 0.890*[#  11]+0.101*[#   7]
    |psi|^2 = 0.992
==== e(   9) =    -3.61720 eV ==== 
     psi = 0.429*[#   5]+0.299*[#   6]+0.250*[#  10]
    |psi|^2 = 0.980
==== e(  10) =    -0.77849 eV ==== 
     psi = 0.611*[#   8]+0.080*[#  12]+0.007*[#   4]+0.003*[#   6]
    |psi|^2 = 0.700
==== e(  11) =    -0.43633 eV ==== 
     psi = 0.730*[#   7]+0.085*[#  11]+0.008*[#   3]
    |psi|^2 = 0.823
==== e(  12) =     0.33774 eV ==== 
     psi = 0.140*[#   6]+0.056*[#   5]+0.037*[#  10]+0.023*[#   9]+0.009*[#   8]
          +0.003*[#   2]+0.001*[#  12]
    |psi|^2 = 0.268
==== e(  13) =     0.70168 eV ==== 
     psi = 0.078*[#   6]+0.049*[#   8]+0.017*[#   5]+0.009*[#  10]+0.009*[#   9]
          +0.004*[#  12]+0.001*[#   2]
    |psi|^2 = 0.168
==== e(  14) =     1.58906 eV ==== 
     psi = 0.044*[#   8]+0.010*[#   6]+0.005*[#   5]+0.005*[#  10]+0.004*[#  12]
          +0.002*[#   9]
    |psi|^2 = 0.070
==== e(  15) =     1.85610 eV ==== 
     psi = 0.040*[#   8]+0.018*[#   6]+0.009*[#   5]+0.009*[#  10]+0.005*[#  12]
          +0.003*[#   9]
    |psi|^2 = 0.085
==== e(  16) =     2.07687 eV ==== 
     psi = 0.024*[#   6]+0.007*[#   5]+0.005*[#  10]+0.004*[#   9]
    |psi|^2 = 0.042
==== e(  17) =     2.46800 eV ==== 
     psi = 0.011*[#   7]+0.001*[#  11]
    |psi|^2 = 0.012
==== e(  18) =     2.74459 eV ==== 
     psi = 0.043*[#   6]+0.009*[#   5]+0.006*[#  10]+0.006*[#   9]+0.004*[#   8]
          
    |psi|^2 = 0.070
==== e(  19) =     2.93627 eV ==== 
     psi = 0.013*[#   6]+0.009*[#  10]+0.004*[#   5]+0.002*[#   8]+0.003*[#   9]
          
    |psi|^2 = 0.031
==== e(  20) =     3.04623 eV ==== 
     psi = 0.037*[#   7]+0.009*[#  11]
    |psi|^2 = 0.046
==== e(  21) =     3.27681 eV ==== 
     psi = 0.009*[#   8]+0.002*[#  12]
    |psi|^2 = 0.014
==== e(  22) =     3.77547 eV ==== 
     psi = 0.005*[#   8]+0.004*[#   6]+0.002*[#   5]+0.002*[#  10]+0.001*[#  12]
          
    |psi|^2 = 0.014
==== e(  23) =     3.95649 eV ==== 
     psi = 0.009*[#   7]+0.003*[#  11]
    |psi|^2 = 0.012
==== e(  24) =     4.20306 eV ==== 
     psi = 0.023*[#   6]+0.010*[#   8]+0.005*[#   5]+0.005*[#  10]+0.003*[#   9]
          +0.002*[#  12]
    |psi|^2 = 0.050
==== e(  25) =     4.36634 eV ==== 
     psi = 0.011*[#   6]+0.005*[#   8]+0.004*[#  10]+0.003*[#   5]+0.002*[#  12]
          +0.002*[#   9]
    |psi|^2 = 0.026
==== e(  26) =     4.43709 eV ==== 
     psi = 0.001*[#  11]
    |psi|^2 = 0.002
==== e(  27) =     4.63137 eV ==== 
     psi = 0.040*[#   6]+0.009*[#  10]+0.007*[#   5]+0.006*[#   9]+0.004*[#   8]
          
    |psi|^2 = 0.067
==== e(  28) =     4.86828 eV ==== 
     psi = 0.011*[#   7]+0.001*[#  11]
    |psi|^2 = 0.012
==== e(  29) =     4.88133 eV ==== 
     psi = 0.007*[#   6]+0.002*[#   5]+0.001*[#  10]+0.001*[#   9]
    |psi|^2 = 0.011
==== e(  30) =     5.15164 eV ==== 
     psi = 0.008*[#   8]+0.006*[#   6]
    |psi|^2 = 0.016
==== e(  31) =     5.33839 eV ==== 
     psi = 0.004*[#   7]
    |psi|^2 = 0.004
==== e(  32) =     5.41576 eV ==== 
     psi = 0.004*[#   6]+0.001*[#   8]
    |psi|^2 = 0.008
==== e(  33) =     5.70544 eV ==== 
     psi = 0.001*[#   8]
    |psi|^2 = 0.003

 k =   0.2500000000  0.0000000000  0.0000000000
==== e(   1) =   -80.47689 eV ==== 
     psi = 0.997*[#   1]+0.003*[#  10]
    |psi|^2 = 1.000
==== e(   2) =   -47.43163 eV ==== 
     psi = 0.990*[#   4]+0.010*[#   8]
    |psi|^2 = 1.000
==== e(   3) =   -47.43163 eV ==== 
     psi = 0.990*[#   3]+0.010*[#   7]
    |psi|^2 = 1.000
==== e(   4) =   -47.41540 eV ==== 
     psi = 0.985*[#   2]+0.011*[#   6]+0.002*[#  10]+0.001*[#   9]
    |psi|^2 = 1.000
==== e(   5) =   -14.12664 eV ==== 
     psi = 0.866*[#   9]+0.070*[#   6]+0.059*[#   5]+0.002*[#  10]
    |psi|^2 = 0.998
==== e(   6) =    -5.83331 eV ==== 
     psi = 0.593*[#  10]+0.357*[#   5]+0.040*[#   9]+0.001*[#   1]
    |psi|^2 = 0.992
==== e(   7) =    -4.05755 eV ==== 
     psi = 0.883*[#  11]+0.107*[#   7]
    |psi|^2 = 0.991
==== e(   8) =    -4.04109 eV ==== 
     psi = 0.890*[#  12]+0.101*[#   8]
    |psi|^2 = 0.992
==== e(   9) =    -3.62308 eV ==== 
     psi = 0.430*[#   5]+0.298*[#   6]+0.249*[#  10]
    |psi|^2 = 0.979
==== e(  10) =    -0.77560 eV ==== 
     psi = 0.610*[#   7]+0.080*[#  11]+0.007*[#   3]+0.003*[#   6]
    |psi|^2 = 0.700
==== e(  11) =    -0.43347 eV ==== 
     psi = 0.731*[#   8]+0.085*[#  12]+0.008*[#   4]
    |psi|^2 = 0.824
==== e(  12) =     0.53878 eV ==== 
     psi = 0.055*[#   7]+0.027*[#   6]+0.005*[#  11]+0.002*[#   9]
    |psi|^2 = 0.090
==== e(  13) =     0.58296 eV ==== 
     psi = 0.210*[#   6]+0.082*[#   5]+0.053*[#  10]+0.032*[#   9]+0.005*[#   2]
          
    |psi|^2 = 0.382
==== e(  14) =     1.52327 eV ==== 
     psi = 0.020*[#   7]+0.004*[#   6]+0.003*[#  10]+0.003*[#   5]+0.001*[#   9]
          +0.001*[#  11]
    |psi|^2 = 0.033
==== e(  15) =     1.70309 eV ==== 
     psi = 0.064*[#   7]+0.007*[#  11]+0.007*[#   6]+0.002*[#   5]+0.002*[#   9]
          +0.001*[#  10]
    |psi|^2 = 0.084
==== e(  16) =     2.19890 eV ==== 
     psi = 0.006*[#   6]+0.005*[#  10]+0.003*[#   5]+0.002*[#   9]+0.001*[#  11]
          
    |psi|^2 = 0.018
==== e(  17) =     2.44186 eV ==== 
     psi = 0.013*[#   8]+0.001*[#  12]
    |psi|^2 = 0.014
==== e(  18) =     2.54114 eV ==== 
     psi = 0.064*[#   6]+0.013*[#   5]+0.012*[#  10]+0.009*[#   9]+0.001*[#   2]
          
    |psi|^2 = 0.102
==== e(  19) =     3.00108 eV ==== 
     psi = 0.033*[#   8]+0.008*[#  12]
    |psi|^2 = 0.041
==== e(  20) =     3.14266 eV ==== 
     psi = 0.016*[#   6]+0.011*[#  10]+0.004*[#   5]+0.003*[#   9]
    |psi|^2 = 0.036
==== e(  21) =     3.16433 eV ==== 
     psi = 0.015*[#   7]+0.004*[#   6]+0.002*[#  11]
    |psi|^2 = 0.024
==== e(  22) =     3.78867 eV ==== 
     psi = 0.023*[#   6]+0.005*[#  10]+0.004*[#   9]+0.003*[#   7]+0.003*[#   5]
          
    |psi|^2 = 0.039
==== e(  23) =     4.11442 eV ==== 
     psi = 0.005*[#   8]+0.003*[#  12]
    |psi|^2 = 0.008
==== e(  24) =     4.13733 eV ==== 
     psi = 0.020*[#   7]+0.006*[#  11]
    |psi|^2 = 0.028
==== e(  25) =     4.46778 eV ==== 
     psi = 0.002*[#   7]
    |psi|^2 = 0.004
==== e(  26) =     4.47119 eV ==== 
     psi = 0.001*[#  12]
    |psi|^2 = 0.002
==== e(  27) =     4.75244 eV ==== 
     psi = 0.027*[#   6]+0.008*[#   5]+0.004*[#  10]+0.003*[#   9]
    |psi|^2 = 0.042
==== e(  28) =     4.95086 eV ==== 
     psi = 0.012*[#   8]
    |psi|^2 = 0.013
==== e(  29) =     5.09199 eV ==== 
     psi = 0.002*[#   7]
    |psi|^2 = 0.004
==== e(  30) =     5.19252 eV ==== 
     psi = 0.012*[#   8]+0.002*[#  12]
    |psi|^2 = 0.015
==== e(  31) =     5.28702 eV ==== 
     psi = 0.003*[#   6]+0.002*[#   5]+0.001*[#  10]
    |psi|^2 = 0.008
==== e(  32) =     5.55394 eV ==== 
     psi = 0.012*[#   6]+0.003*[#   5]+0.001*[#   7]+0.001*[#   9]+0.001*[#  10]
          
    |psi|^2 = 0.019
==== e(  33) =     5.62064 eV ==== 
     psi = 0.010*[#   7]+0.002*[#   6]
    |psi|^2 = 0.013

 k =   0.2500000000  0.0000000000  0.1750000000
==== e(   1) =   -80.47689 eV ==== 
     psi = 0.997*[#   1]+0.003*[#  10]
    |psi|^2 = 1.000
==== e(   2) =   -47.43163 eV ==== 
     psi = 0.990*[#   4]+0.010*[#   8]
    |psi|^2 = 1.000
==== e(   3) =   -47.43163 eV ==== 
     psi = 0.990*[#   3]+0.010*[#   7]
    |psi|^2 = 1.000
==== e(   4) =   -47.41540 eV ==== 
     psi = 0.985*[#   2]+0.011*[#   6]+0.002*[#  10]+0.001*[#   9]
    |psi|^2 = 1.000
==== e(   5) =   -14.12664 eV ==== 
     psi = 0.866*[#   9]+0.070*[#   6]+0.059*[#   5]+0.002*[#  10]
    |psi|^2 = 0.998
==== e(   6) =    -5.83426 eV ==== 
     psi = 0.593*[#  10]+0.358*[#   5]+0.040*[#   9]+0.001*[#   1]
    |psi|^2 = 0.992
==== e(   7) =    -4.05741 eV ==== 
     psi = 0.883*[#  11]+0.107*[#   7]
    |psi|^2 = 0.991
==== e(   8) =    -4.04102 eV ==== 
     psi = 0.890*[#  12]+0.101*[#   8]
    |psi|^2 = 0.992
==== e(   9) =    -3.61720 eV ==== 
     psi = 0.429*[#   5]+0.299*[#   6]+0.250*[#  10]
    |psi|^2 = 0.980
==== e(  10) =    -0.77849 eV ==== 
     psi = 0.611*[#   7]+0.080*[#  11]+0.007*[#   3]+0.003*[#   6]
    |psi|^2 = 0.700
==== e(  11) =    -0.43633 eV ==== 
     psi = 0.730*[#   8]+0.085*[#  12]+0.008*[#   4]
    |psi|^2 = 0.823
==== e(  12) =     0.33774 eV ==== 
     psi = 0.140*[#   6]+0.056*[#   5]+0.037*[#  10]+0.023*[#   9]+0.009*[#   7]
          +0.003*[#   2]+0.001*[#  11]
    |psi|^2 = 0.268
==== e(  13) =     0.70168 eV ==== 
     psi = 0.078*[#   6]+0.049*[#   7]+0.017*[#   5]+0.009*[#  10]+0.009*[#   9]
          +0.004*[#  11]+0.001*[#   2]
    |psi|^2 = 0.168
==== e(  14) =     1.58906 eV ==== 
     psi = 0.044*[#   7]+0.010*[#   6]+0.005*[#   5]+0.005*[#  10]+0.004*[#  11]
          +0.002*[#   9]
    |psi|^2 = 0.070
==== e(  15) =     1.85610 eV ==== 
     psi = 0.040*[#   7]+0.018*[#   6]+0.009*[#   5]+0.009*[#  10]+0.005*[#  11]
          +0.003*[#   9]
    |psi|^2 = 0.085
==== e(  16) =     2.07687 eV ==== 
     psi = 0.024*[#   6]+0.007*[#   5]+0.005*[#  10]+0.004*[#   9]
    |psi|^2 = 0.042
==== e(  17) =     2.46800 eV ==== 
     psi = 0.011*[#   8]+0.001*[#  12]
    |psi|^2 = 0.012
==== e(  18) =     2.74459 eV ==== 
     psi = 0.043*[#   6]+0.009*[#   5]+0.006*[#  10]+0.006*[#   9]+0.004*[#   7]
          
    |psi|^2 = 0.070
==== e(  19) =     2.93627 eV ==== 
     psi = 0.013*[#   6]+0.009*[#  10]+0.004*[#   5]+0.002*[#   7]+0.003*[#   9]
          
    |psi|^2 = 0.031
==== e(  20) =     3.04623 eV ==== 
     psi = 0.037*[#   8]+0.009*[#  12]
    |psi|^2 = 0.046
==== e(  21) =     3.27681 eV ==== 
     psi = 0.009*[#   7]+0.002*[#  11]
    |psi|^2 = 0.014
==== e(  22) =     3.77547 eV ==== 
     psi = 0.005*[#   7]+0.004*[#   6]+0.002*[#   5]+0.002*[#  10]+0.001*[#  11]
          
    |psi|^2 = 0.014
==== e(  23) =     3.95649 eV ==== 
     psi = 0.009*[#   8]+0.003*[#  12]
    |psi|^2 = 0.012
==== e(  24) =     4.20306 eV ==== 
     psi = 0.023*[#   6]+0.010*[#   7]+0.005*[#   5]+0.005*[#  10]+0.003*[#   9]
          +0.002*[#  11]
    |psi|^2 = 0.050
==== e(  25) =     4.36634 eV ==== 
     psi = 0.011*[#   6]+0.005*[#   7]+0.004*[#  10]+0.003*[#   5]+0.002*[#  11]
          +0.002*[#   9]
    |psi|^2 = 0.026
==== e(  26) =     4.43709 eV ==== 
     psi = 0.001*[#  12]
    |psi|^2 = 0.002
==== e(  27) =     4.63137 eV ==== 
     psi = 0.040*[#   6]+0.009*[#  10]+0.007*[#   5]+0.006*[#   9]+0.004*[#   7]
          
    |psi|^2 = 0.067
==== e(  28) =     4.86828 eV ==== 
     psi = 0.011*[#   8]+0.001*[#  12]
    |psi|^2 = 0.012
==== e(  29) =     4.88133 eV ==== 
     psi = 0.007*[#   6]+0.002*[#   5]+0.001*[#  10]+0.001*[#   9]
    |psi|^2 = 0.011
==== e(  30) =     5.15164 eV ==== 
     psi = 0.008*[#   7]+0.006*[#   6]
    |psi|^2 = 0.016
==== e(  31) =     5.33839 eV ==== 
     psi = 0.004*[#   8]
    |psi|^2 = 0.004
==== e(  32) =     5.41576 eV ==== 
     psi = 0.004*[#   6]+0.001*[#   7]
    |psi|^2 = 0.008
==== e(  33) =     5.70544 eV ==== 
     psi = 0.001*[#   7]
    |psi|^2 = 0.003

 k =   0.2500000000  0.0000000000 -0.3500000000
==== e(   1) =   -80.47689 eV ==== 
     psi = 0.997*[#   1]+0.003*[#  10]
    |psi|^2 = 1.000
==== e(   2) =   -47.43163 eV ==== 
     psi = 0.990*[#   4]+0.010*[#   8]
    |psi|^2 = 1.000
==== e(   3) =   -47.43163 eV ==== 
     psi = 0.990*[#   3]+0.010*[#   7]
    |psi|^2 = 1.000
==== e(   4) =   -47.41540 eV ==== 
     psi = 0.985*[#   2]+0.011*[#   6]+0.002*[#  10]+0.001*[#   9]
    |psi|^2 = 1.000
==== e(   5) =   -14.12664 eV ==== 
     psi = 0.866*[#   9]+0.070*[#   6]+0.059*[#   5]+0.002*[#  10]
    |psi|^2 = 0.998
==== e(   6) =    -5.83520 eV ==== 
     psi = 0.593*[#  10]+0.358*[#   5]+0.040*[#   9]+0.001*[#   1]
    |psi|^2 = 0.992
==== e(   7) =    -4.05727 eV ==== 
     psi = 0.883*[#  11]+0.106*[#   7]
    |psi|^2 = 0.991
==== e(   8) =    -4.04094 eV ==== 
     psi = 0.890*[#  12]+0.101*[#   8]
    |psi|^2 = 0.992
==== e(   9) =    -3.61128 eV ==== 
     psi = 0.429*[#   5]+0.299*[#   6]+0.250*[#  10]
    |psi|^2 = 0.981
==== e(  10) =    -0.78138 eV ==== 
     psi = 0.612*[#   7]+0.079*[#  11]+0.007*[#   3]+0.002*[#   6]
    |psi|^2 = 0.700
==== e(  11) =    -0.43917 eV ==== 
     psi = 0.730*[#   8]+0.084*[#  12]+0.008*[#   4]
    |psi|^2 = 0.822
==== e(  12) =     0.23104 eV ==== 
     psi = 0.150*[#   6]+0.061*[#   5]+0.041*[#  10]+0.025*[#   9]+0.003*[#   2]
          +0.002*[#   7]
    |psi|^2 = 0.284
==== e(  13) =     0.74271 eV ==== 
     psi = 0.057*[#   6]+0.055*[#   7]+0.006*[#   5]+0.005*[#  11]+0.005*[#   9]
          +0.001*[#  10]
    |psi|^2 = 0.130
==== e(  14) =     1.68399 eV ==== 
     psi = 0.062*[#   7]+0.020*[#   6]+0.009*[#  11]+0.009*[#  10]+0.008*[#   5]
          +0.004*[#   9]
    |psi|^2 = 0.113
==== e(  15) =     1.76256 eV ==== 
     psi = 0.017*[#   7]+0.015*[#   6]+0.007*[#  10]+0.006*[#   5]+0.002*[#   9]
          
    |psi|^2 = 0.049
==== e(  16) =     2.30181 eV ==== 
     psi = 0.034*[#   6]+0.013*[#   5]+0.011*[#  10]+0.009*[#   7]+0.004*[#   9]
          +0.002*[#  11]
    |psi|^2 = 0.075
==== e(  17) =     2.49589 eV ==== 
     psi = 0.009*[#   8]
    |psi|^2 = 0.010
==== e(  18) =     2.71913 eV ==== 
     psi = 0.015*[#   6]+0.005*[#   7]+0.005*[#   5]+0.002*[#   9]
    |psi|^2 = 0.028
==== e(  19) =     3.04343 eV ==== 
     psi = 0.003*[#   6]+0.001*[#   7]
    |psi|^2 = 0.004
==== e(  20) =     3.09397 eV ==== 
     psi = 0.041*[#   8]+0.010*[#  12]
    |psi|^2 = 0.052
==== e(  21) =     3.33400 eV ==== 
     psi = 0.031*[#   6]+0.010*[#   5]+0.009*[#  10]+0.006*[#   9]+0.001*[#   7]
          
    |psi|^2 = 0.058
==== e(  22) =     3.42902 eV ==== 
     psi = 0.011*[#   7]+0.003*[#  11]+0.002*[#   6]
    |psi|^2 = 0.018
==== e(  23) =     3.86393 eV ==== 
     psi = 0.014*[#   8]+0.004*[#  12]
    |psi|^2 = 0.018
==== e(  24) =     4.20488 eV ==== 
     psi = 0.035*[#   6]+0.010*[#  10]+0.008*[#   5]+0.006*[#   9]+0.003*[#   7]
          
    |psi|^2 = 0.063
==== e(  25) =     4.26810 eV ==== 
     psi = 0.006*[#   6]+0.004*[#  10]+0.002*[#   7]+0.001*[#  11]+0.001*[#   9]
          
    |psi|^2 = 0.015
==== e(  26) =     4.33545 eV ==== 
 
    |psi|^2 = 0.000
==== e(  27) =     4.65223 eV ==== 
     psi = 0.025*[#   6]+0.006*[#  10]+0.005*[#   5]+0.004*[#   9]+0.003*[#   7]
          +0.001*[#  11]
    |psi|^2 = 0.043
==== e(  28) =     4.72788 eV ==== 
     psi = 0.003*[#   8]
    |psi|^2 = 0.004
==== e(  29) =     5.03211 eV ==== 
     psi = 0.032*[#   6]+0.005*[#  10]+0.005*[#   5]+0.004*[#   9]
    |psi|^2 = 0.047
==== e(  30) =     5.15411 eV ==== 
     psi = 0.019*[#   7]+0.006*[#   6]+0.002*[#  11]+0.001*[#   9]
    |psi|^2 = 0.029
==== e(  31) =     5.49459 eV ==== 
     psi = 0.010*[#   6]+0.004*[#   7]+0.002*[#   9]+0.002*[#  10]+0.001*[#   5]
          
    |psi|^2 = 0.020
==== e(  32) =     5.61941 eV ==== 
 
    |psi|^2 = 0.002
==== e(  33) =     5.87814 eV ==== 
     psi = 0.006*[#   6]+0.006*[#  10]+0.003*[#   7]+0.002*[#   9]+0.001*[#   5]
          
    |psi|^2 = 0.018

 k =   0.2500000000  0.0000000000 -0.1750000000
==== e(   1) =   -80.47689 eV ==== 
     psi = 0.997*[#   1]+0.003*[#  10]
    |psi|^2 = 1.000
==== e(   2) =   -47.43163 eV ==== 
     psi = 0.990*[#   4]+0.010*[#   8]
    |psi|^2 = 1.000
==== e(   3) =   -47.43163 eV ==== 
     psi = 0.990*[#   3]+0.010*[#   7]
    |psi|^2 = 1.000
==== e(   4) =   -47.41540 eV ==== 
     psi = 0.985*[#   2]+0.011*[#   6]+0.002*[#  10]+0.001*[#   9]
    |psi|^2 = 1.000
==== e(   5) =   -14.12664 eV ==== 
     psi = 0.866*[#   9]+0.070*[#   6]+0.059*[#   5]+0.002*[#  10]
    |psi|^2 = 0.998
==== e(   6) =    -5.83426 eV ==== 
     psi = 0.593*[#  10]+0.358*[#   5]+0.040*[#   9]+0.001*[#   1]
    |psi|^2 = 0.992
==== e(   7) =    -4.05741 eV ==== 
     psi = 0.883*[#  11]+0.107*[#   7]
    |psi|^2 = 0.991
==== e(   8) =    -4.04102 eV ==== 
     psi = 0.890*[#  12]+0.101*[#   8]
    |psi|^2 = 0.992
==== e(   9) =    -3.61720 eV ==== 
     psi = 0.429*[#   5]+0.299*[#   6]+0.250*[#  10]
    |psi|^2 = 0.980
==== e(  10) =    -0.77849 eV ==== 
     psi = 0.611*[#   7]+0.080*[#  11]+0.007*[#   3]+0.003*[#   6]
    |psi|^2 = 0.700
==== e(  11) =    -0.43633 eV ==== 
     psi = 0.730*[#   8]+0.085*[#  12]+0.008*[#   4]
    |psi|^2 = 0.823
==== e(  12) =     0.33774 eV ==== 
     psi = 0.140*[#   6]+0.056*[#   5]+0.037*[#  10]+0.023*[#   9]+0.009*[#   7]
          +0.003*[#   2]+0.001*[#  11]
    |psi|^2 = 0.268
==== e(  13) =     0.70168 eV ==== 
     psi = 0.078*[#   6]+0.049*[#   7]+0.017*[#   5]+0.009*[#  10]+0.009*[#   9]
          +0.004*[#  11]+0.001*[#   2]
    |psi|^2 = 0.168
==== e(  14) =     1.58906 eV ==== 
     psi = 0.044*[#   7]+0.010*[#   6]+0.005*[#   5]+0.005*[#  10]+0.004*[#  11]
          +0.002*[#   9]
    |psi|^2 = 0.070
==== e(  15) =     1.85610 eV ==== 
     psi = 0.040*[#   7]+0.018*[#   6]+0.009*[#   5]+0.009*[#  10]+0.005*[#  11]
          +0.003*[#   9]
    |psi|^2 = 0.085
==== e(  16) =     2.07687 eV ==== 
     psi = 0.024*[#   6]+0.007*[#   5]+0.005*[#  10]+0.004*[#   9]
    |psi|^2 = 0.042
==== e(  17) =     2.46800 eV ==== 
     psi = 0.011*[#   8]+0.001*[#  12]
    |psi|^2 = 0.012
==== e(  18) =     2.74459 eV ==== 
     psi = 0.043*[#   6]+0.009*[#   5]+0.006*[#  10]+0.006*[#   9]+0.004*[#   7]
          
    |psi|^2 = 0.070
==== e(  19) =     2.93627 eV ==== 
     psi = 0.013*[#   6]+0.009*[#  10]+0.004*[#   5]+0.002*[#   7]+0.003*[#   9]
          
    |psi|^2 = 0.031
==== e(  20) =     3.04623 eV ==== 
     psi = 0.037*[#   8]+0.009*[#  12]
    |psi|^2 = 0.046
==== e(  21) =     3.27681 eV ==== 
     psi = 0.009*[#   7]+0.002*[#  11]
    |psi|^2 = 0.014
==== e(  22) =     3.77547 eV ==== 
     psi = 0.005*[#   7]+0.004*[#   6]+0.002*[#   5]+0.002*[#  10]+0.001*[#  11]
          
    |psi|^2 = 0.014
==== e(  23) =     3.95649 eV ==== 
     psi = 0.009*[#   8]+0.003*[#  12]
    |psi|^2 = 0.012
==== e(  24) =     4.20306 eV ==== 
     psi = 0.023*[#   6]+0.010*[#   7]+0.005*[#   5]+0.005*[#  10]+0.003*[#   9]
          +0.002*[#  11]
    |psi|^2 = 0.050
==== e(  25) =     4.36634 eV ==== 
     psi = 0.011*[#   6]+0.005*[#   7]+0.004*[#  10]+0.003*[#   5]+0.002*[#  11]
          +0.002*[#   9]
    |psi|^2 = 0.026
==== e(  26) =     4.43709 eV ==== 
     psi = 0.001*[#  12]
    |psi|^2 = 0.002
==== e(  27) =     4.63137 eV ==== 
     psi = 0.040*[#   6]+0.009*[#  10]+0.007*[#   5]+0.006*[#   9]+0.004*[#   7]
          
    |psi|^2 = 0.067
==== e(  28) =     4.86828 eV ==== 
     psi = 0.011*[#   8]+0.001*[#  12]
    |psi|^2 = 0.012
==== e(  29) =     4.88133 eV ==== 
     psi = 0.007*[#   6]+0.002*[#   5]+0.001*[#  10]+0.001*[#   9]
    |psi|^2 = 0.011
==== e(  30) =     5.15164 eV ==== 
     psi = 0.008*[#   7]+0.006*[#   6]
    |psi|^2 = 0.016
==== e(  31) =     5.33839 eV ==== 
     psi = 0.004*[#   8]
    |psi|^2 = 0.004
==== e(  32) =     5.41576 eV ==== 
     psi = 0.004*[#   6]+0.001*[#   7]
    |psi|^2 = 0.008
==== e(  33) =     5.70544 eV ==== 
     psi = 0.001*[#   7]
    |psi|^2 = 0.003

 k =   0.2500000000  0.2500000000  0.0000000000
==== e(   1) =   -80.47689 eV ==== 
     psi = 0.997*[#   1]+0.003*[#  10]
    |psi|^2 = 1.000
==== e(   2) =   -47.43163 eV ==== 
     psi = 0.495*[#   3]+0.495*[#   4]+0.005*[#   7]+0.005*[#   8]
    |psi|^2 = 1.000
==== e(   3) =   -47.43163 eV ==== 
     psi = 0.495*[#   3]+0.495*[#   4]+0.005*[#   7]+0.005*[#   8]
    |psi|^2 = 1.000
==== e(   4) =   -47.41540 eV ==== 
     psi = 0.985*[#   2]+0.011*[#   6]+0.002*[#  10]+0.001*[#   9]
    |psi|^2 = 1.000
==== e(   5) =   -14.12657 eV ==== 
     psi = 0.866*[#   9]+0.070*[#   6]+0.059*[#   5]+0.002*[#  10]
    |psi|^2 = 0.998
==== e(   6) =    -5.82982 eV ==== 
     psi = 0.595*[#  10]+0.355*[#   5]+0.040*[#   9]+0.001*[#   1]
    |psi|^2 = 0.992
==== e(   7) =    -4.05650 eV ==== 
     psi = 0.442*[#  11]+0.442*[#  12]+0.053*[#   7]+0.053*[#   8]
    |psi|^2 = 0.991
==== e(   8) =    -4.05520 eV ==== 
     psi = 0.443*[#  11]+0.443*[#  12]+0.053*[#   7]+0.053*[#   8]
    |psi|^2 = 0.991
==== e(   9) =    -3.60425 eV ==== 
     psi = 0.431*[#   5]+0.301*[#   6]+0.247*[#  10]
    |psi|^2 = 0.981
==== e(  10) =    -0.75844 eV ==== 
     psi = 0.304*[#   7]+0.304*[#   8]+0.040*[#  11]+0.040*[#  12]+0.004*[#   6]
          +0.003*[#   3]+0.003*[#   4]
    |psi|^2 = 0.699
==== e(  11) =    -0.68833 eV ==== 
     psi = 0.332*[#   7]+0.332*[#   8]+0.042*[#  11]+0.042*[#  12]+0.004*[#   3]
          +0.004*[#   4]
    |psi|^2 = 0.755
==== e(  12) =     0.69727 eV ==== 
     psi = 0.110*[#   6]+0.059*[#   5]+0.043*[#  10]+0.019*[#   9]+0.007*[#   7]
          +0.007*[#   8]+0.003*[#   2]+0.001*[#  11]+0.001*[#  12]
    |psi|^2 = 0.251
==== e(  13) =     0.83112 eV ==== 
     psi = 0.128*[#   6]+0.042*[#   7]+0.042*[#   8]+0.029*[#   5]+0.016*[#   9]
          +0.014*[#  10]+0.003*[#  11]+0.003*[#  12]+0.002*[#   2]
    |psi|^2 = 0.281
==== e(  14) =     1.63258 eV ==== 
     psi = 0.025*[#   6]+0.008*[#   7]+0.008*[#   8]+0.004*[#   5]+0.004*[#   9]
          +0.002*[#  10]
    |psi|^2 = 0.052
==== e(  15) =     1.77982 eV ==== 
     psi = 0.042*[#   7]+0.042*[#   8]+0.004*[#  11]+0.004*[#  12]
    |psi|^2 = 0.093
==== e(  16) =     2.03886 eV ==== 
     psi = 0.016*[#   7]+0.016*[#   8]+0.003*[#  11]+0.003*[#  12]+0.002*[#   6]
          
    |psi|^2 = 0.039
==== e(  17) =     2.22430 eV ==== 
     psi = 0.009*[#  10]+0.008*[#   6]+0.005*[#   5]+0.002*[#   9]
[...]
==== e(  19) =     2.81140 eV ==== 
     psi = 0.001*[#  12]
    |psi|^2 = 0.002
==== e(  20) =     3.16658 eV ==== 
     psi = 0.046*[#   8]+0.004*[#  12]
    |psi|^2 = 0.051
==== e(  21) =     3.21568 eV ==== 
     psi = 0.037*[#   6]+0.007*[#   5]+0.004*[#   9]+0.004*[#  10]+0.002*[#   7]
          +0.001*[#  11]
    |psi|^2 = 0.057
==== e(  22) =     3.64023 eV ==== 
     psi = 0.003*[#  10]+0.002*[#   6]+0.001*[#   7]
    |psi|^2 = 0.008
==== e(  23) =     3.77414 eV ==== 
     psi = 0.002*[#   8]
    |psi|^2 = 0.003
==== e(  24) =     4.15569 eV ==== 
     psi = 0.011*[#   7]+0.005*[#   6]+0.003*[#  11]+0.002*[#  10]+0.002*[#   5]
          
    |psi|^2 = 0.024
==== e(  25) =     4.22485 eV ==== 
 
    |psi|^2 = 0.001
==== e(  26) =     4.57865 eV ==== 
     psi = 0.012*[#   6]+0.009*[#   7]+0.003*[#   5]+0.002*[#  11]+0.001*[#   9]
          
    |psi|^2 = 0.029
==== e(  27) =     4.58153 eV ==== 
     psi = 0.013*[#   8]+0.003*[#  12]
    |psi|^2 = 0.015
==== e(  28) =     5.13091 eV ==== 
     psi = 0.030*[#   6]+0.011*[#  10]+0.006*[#   7]+0.005*[#   5]+0.005*[#   9]
          
    |psi|^2 = 0.058
==== e(  29) =     5.32001 eV ==== 
     psi = 0.016*[#   6]+0.011*[#   7]+0.005*[#  10]+0.003*[#   9]+0.001*[#   5]
          
    |psi|^2 = 0.038
==== e(  30) =     5.32230 eV ==== 
 
    |psi|^2 = 0.000
==== e(  31) =     5.53872 eV ==== 
     psi = 0.015*[#   6]+0.005*[#  10]+0.004*[#   5]+0.003*[#   9]+0.001*[#   7]
          
    |psi|^2 = 0.029
==== e(  32) =     5.55881 eV ==== 
     psi = 0.005*[#   8]+0.002*[#  12]
    |psi|^2 = 0.008
==== e(  33) =     5.84334 eV ==== 
     psi = 0.002*[#   8]
    |psi|^2 = 0.002

 k =  -0.2500000000 -0.2500000000  0.0000000000
==== e(   1) =   -80.47689 eV ==== 
     psi = 0.997*[#   1]+0.003*[#  10]
    |psi|^2 = 1.000
==== e(   2) =   -47.43163 eV ==== 
     psi = 0.495*[#   3]+0.495*[#   4]+0.005*[#   7]+0.005*[#   8]
    |psi|^2 = 1.000
==== e(   3) =   -47.43163 eV ==== 
     psi = 0.495*[#   3]+0.495*[#   4]+0.005*[#   7]+0.005*[#   8]
    |psi|^2 = 1.000
==== e(   4) =   -47.41540 eV ==== 
     psi = 0.985*[#   2]+0.011*[#   6]+0.002*[#  10]+0.001*[#   9]
    |psi|^2 = 1.000
==== e(   5) =   -14.12657 eV ==== 
     psi = 0.866*[#   9]+0.070*[#   6]+0.059*[#   5]+0.002*[#  10]
    |psi|^2 = 0.998
==== e(   6) =    -5.82982 eV ==== 
     psi = 0.595*[#  10]+0.355*[#   5]+0.040*[#   9]+0.001*[#   1]
    |psi|^2 = 0.992
==== e(   7) =    -4.05650 eV ==== 
     psi = 0.442*[#  11]+0.442*[#  12]+0.053*[#   7]+0.053*[#   8]
    |psi|^2 = 0.991
==== e(   8) =    -4.05520 eV ==== 
     psi = 0.443*[#  11]+0.443*[#  12]+0.053*[#   7]+0.053*[#   8]
    |psi|^2 = 0.991
==== e(   9) =    -3.60425 eV ==== 
     psi = 0.431*[#   5]+0.301*[#   6]+0.247*[#  10]
    |psi|^2 = 0.981
==== e(  10) =    -0.75844 eV ==== 
     psi = 0.304*[#   7]+0.304*[#   8]+0.040*[#  11]+0.040*[#  12]+0.004*[#   6]
          +0.003*[#   3]+0.003*[#   4]
    |psi|^2 = 0.699
==== e(  11) =    -0.68833 eV ==== 
     psi = 0.332*[#   7]+0.332*[#   8]+0.042*[#  11]+0.042*[#  12]+0.004*[#   3]
          +0.004*[#   4]
    |psi|^2 = 0.755
==== e(  12) =     0.69727 eV ==== 
     psi = 0.110*[#   6]+0.059*[#   5]+0.043*[#  10]+0.019*[#   9]+0.007*[#   7]
          +0.007*[#   8]+0.003*[#   2]+0.001*[#  11]+0.001*[#  12]
    |psi|^2 = 0.251
==== e(  13) =     0.83112 eV ==== 
     psi = 0.128*[#   6]+0.042*[#   7]+0.042*[#   8]+0.029*[#   5]+0.016*[#   9]
          +0.014*[#  10]+0.003*[#  11]+0.003*[#  12]+0.002*[#   2]
    |psi|^2 = 0.281
==== e(  14) =     1.63258 eV ==== 
     psi = 0.025*[#   6]+0.008*[#   7]+0.008*[#   8]+0.004*[#   5]+0.004*[#   9]
          +0.002*[#  10]
    |psi|^2 = 0.052
==== e(  15) =     1.77982 eV ==== 
     psi = 0.042*[#   7]+0.042*[#   8]+0.004*[#  11]+0.004*[#  12]
    |psi|^2 = 0.093
==== e(  16) =     2.03886 eV ==== 
     psi = 0.016*[#   7]+0.016*[#   8]+0.003*[#  11]+0.003*[#  12]+0.002*[#   6]
          
    |psi|^2 = 0.039
==== e(  17) =     2.22430 eV ==== 
     psi = 0.009*[#  10]+0.008*[#   6]+0.005*[#   5]+0.002*[#   9]
    |psi|^2 = 0.027
==== e(  18) =     2.42124 eV ==== 
     psi = 0.001*[#   7]+0.001*[#   8]+0.001*[#  11]+0.001*[#  12]
    |psi|^2 = 0.005
==== e(  19) =     2.76454 eV ==== 
     psi = 0.067*[#   6]+0.015*[#  10]+0.014*[#   5]+0.011*[#   9]+0.001*[#   2]
          
    |psi|^2 = 0.108
==== e(  20) =     3.03044 eV ==== 
     psi = 0.006*[#   7]+0.006*[#   8]+0.002*[#  11]+0.002*[#  12]
    |psi|^2 = 0.016
==== e(  21) =     3.50346 eV ==== 
     psi = 0.005*[#   7]+0.005*[#   8]+0.001*[#  11]+0.001*[#  12]+0.001*[#   6]
          
    |psi|^2 = 0.015
==== e(  22) =     3.71157 eV ==== 
     psi = 0.017*[#   6]+0.005*[#  10]+0.005*[#   7]+0.005*[#   8]+0.003*[#   5]
          +0.002*[#   9]
    |psi|^2 = 0.037
==== e(  23) =     4.00943 eV ==== 
     psi = 0.002*[#  10]+0.002*[#   7]+0.002*[#   8]
    |psi|^2 = 0.006
==== e(  24) =     4.14050 eV ==== 
     psi = 0.015*[#   7]+0.015*[#   8]+0.001*[#  11]+0.001*[#  12]
    |psi|^2 = 0.033
==== e(  25) =     4.37303 eV ==== 
     psi = 0.006*[#   7]+0.006*[#   8]+0.003*[#   6]+0.002*[#  11]+0.002*[#  12]
          
    |psi|^2 = 0.022
==== e(  26) =     4.50482 eV ==== 
     psi = 0.002*[#   7]+0.002*[#   8]+0.002*[#  11]+0.002*[#  12]
    |psi|^2 = 0.009
==== e(  27) =     4.82123 eV ==== 
     psi = 0.007*[#   6]+0.003*[#  10]
    |psi|^2 = 0.012
==== e(  28) =     5.02308 eV ==== 
     psi = 0.019*[#   6]+0.007*[#   5]+0.003*[#  10]+0.002*[#   9]
    |psi|^2 = 0.034
==== e(  29) =     5.10264 eV ==== 
     psi = 0.001*[#   7]+0.001*[#   8]
    |psi|^2 = 0.003
==== e(  30) =     5.36731 eV ==== 
     psi = 0.005*[#   7]+0.005*[#   8]
    |psi|^2 = 0.012
==== e(  31) =     5.43616 eV ==== 
     psi = 0.007*[#   6]+0.005*[#   7]+0.005*[#   8]+0.001*[#   5]
    |psi|^2 = 0.018
==== e(  32) =     5.65758 eV ==== 
 
    |psi|^2 = 0.002
==== e(  33) =     5.89755 eV ==== 
     psi = 0.002*[#   7]+0.002*[#   8]
    |psi|^2 = 0.004

 k =  -0.2500000000 -0.2500000000  0.1750000000
==== e(   1) =   -80.47689 eV ==== 
     psi = 0.997*[#   1]+0.003*[#  10]
    |psi|^2 = 1.000
==== e(   2) =   -47.43163 eV ==== 
     psi = 0.495*[#   3]+0.495*[#   4]+0.005*[#   7]+0.005*[#   8]
    |psi|^2 = 1.000
==== e(   3) =   -47.43163 eV ==== 
     psi = 0.495*[#   3]+0.495*[#   4]+0.005*[#   7]+0.005*[#   8]
    |psi|^2 = 1.000
==== e(   4) =   -47.41540 eV ==== 
     psi = 0.985*[#   2]+0.011*[#   6]+0.002*[#  10]+0.001*[#   9]
    |psi|^2 = 1.000
==== e(   5) =   -14.12657 eV ==== 
     psi = 0.866*[#   9]+0.070*[#   6]+0.059*[#   5]+0.002*[#  10]
    |psi|^2 = 0.998
==== e(   6) =    -5.83074 eV ==== 
     psi = 0.595*[#  10]+0.355*[#   5]+0.040*[#   9]+0.001*[#   1]
    |psi|^2 = 0.992
==== e(   7) =    -4.05635 eV ==== 
     psi = 0.442*[#  11]+0.442*[#  12]+0.053*[#   7]+0.053*[#   8]
    |psi|^2 = 0.991
==== e(   8) =    -4.05509 eV ==== 
     psi = 0.443*[#  11]+0.443*[#  12]+0.053*[#   7]+0.053*[#   8]
    |psi|^2 = 0.991
==== e(   9) =    -3.59864 eV ==== 
     psi = 0.430*[#   5]+0.301*[#   6]+0.247*[#  10]
    |psi|^2 = 0.982
==== e(  10) =    -0.76128 eV ==== 
     psi = 0.305*[#   7]+0.305*[#   8]+0.039*[#  11]+0.039*[#  12]+0.004*[#   6]
          +0.003*[#   3]+0.003*[#   4]
    |psi|^2 = 0.699
==== e(  11) =    -0.69182 eV ==== 
     psi = 0.331*[#   7]+0.331*[#   8]+0.042*[#  11]+0.042*[#  12]+0.004*[#   3]
          +0.004*[#   4]
    |psi|^2 = 0.754
==== e(  12) =     0.48993 eV ==== 
     psi = 0.147*[#   6]+0.061*[#   5]+0.042*[#  10]+0.024*[#   9]+0.004*[#   7]
          +0.004*[#   8]+0.003*[#   2]
    |psi|^2 = 0.288
==== e(  13) =     0.99894 eV ==== 
     psi = 0.071*[#   6]+0.053*[#   7]+0.053*[#   8]+0.017*[#   5]+0.009*[#  10]
          +0.009*[#   9]+0.004*[#  11]+0.004*[#  12]+0.001*[#   2]
    |psi|^2 = 0.223
==== e(  14) =     1.73477 eV ==== 
     psi = 0.037*[#   6]+0.009*[#   5]+0.005*[#   9]+0.005*[#  10]+0.001*[#   7]
          +0.001*[#   8]
    |psi|^2 = 0.059
==== e(  15) =     1.84264 eV ==== 
     psi = 0.042*[#   7]+0.042*[#   8]+0.004*[#  11]+0.004*[#  12]
    |psi|^2 = 0.093
==== e(  16) =     1.90180 eV ==== 
     psi = 0.019*[#   6]+0.010*[#  10]+0.008*[#   5]+0.006*[#   7]+0.006*[#   8]
          +0.003*[#   9]+0.002*[#  11]+0.002*[#  12]
    |psi|^2 = 0.057
==== e(  17) =     2.29400 eV ==== 
     psi = 0.005*[#   7]+0.005*[#   8]+0.002*[#  11]+0.002*[#  12]
    |psi|^2 = 0.014
==== e(  18) =     2.30774 eV ==== 
     psi = 0.009*[#   6]+0.008*[#   7]+0.008*[#   8]+0.003*[#   5]+0.003*[#  10]
          +0.002*[#   9]+0.001*[#  11]+0.001*[#  12]
    |psi|^2 = 0.037
==== e(  19) =     3.06241 eV ==== 
     psi = 0.033*[#   6]+0.010*[#  10]+0.008*[#   5]+0.005*[#   9]+0.002*[#   7]
          +0.002*[#   8]
    |psi|^2 = 0.062
==== e(  20) =     3.17137 eV ==== 
     psi = 0.006*[#   7]+0.006*[#   8]+0.002*[#  11]+0.002*[#  12]
    |psi|^2 = 0.015
==== e(  21) =     3.31452 eV ==== 
     psi = 0.026*[#   6]+0.005*[#   5]+0.005*[#  10]+0.004*[#   9]+0.003*[#   7]
          +0.003*[#   8]
    |psi|^2 = 0.048
==== e(  22) =     3.73687 eV ==== 
     psi = 0.005*[#   6]+0.003*[#   7]+0.003*[#   8]+0.002*[#   5]+0.001*[#  11]
          +0.001*[#  12]
    |psi|^2 = 0.016
==== e(  23) =     4.01299 eV ==== 
     psi = 0.006*[#   7]+0.006*[#   8]+0.002*[#  11]+0.002*[#  12]
    |psi|^2 = 0.017
==== e(  24) =     4.10849 eV ==== 
     psi = 0.009*[#   7]+0.009*[#   8]+0.001*[#  11]+0.001*[#  12]
    |psi|^2 = 0.020
==== e(  25) =     4.26335 eV ==== 
     psi = 0.004*[#   6]+0.002*[#   7]+0.002*[#   8]+0.001*[#   5]
    |psi|^2 = 0.010
==== e(  26) =     4.53138 eV ==== 
     psi = 0.004*[#   7]+0.004*[#   8]+0.001*[#  11]+0.001*[#  12]
    |psi|^2 = 0.010
==== e(  27) =     4.78142 eV ==== 
 
    |psi|^2 = 0.003
==== e(  28) =     4.79350 eV ==== 
     psi = 0.024*[#   6]+0.007*[#  10]+0.006*[#   5]+0.004*[#   9]+0.002*[#   7]
          +0.002*[#   8]
    |psi|^2 = 0.048
==== e(  29) =     4.97105 eV ==== 
     psi = 0.033*[#   6]+0.008*[#  10]+0.005*[#   5]+0.005*[#   9]+0.002*[#   7]
          +0.002*[#   8]
    |psi|^2 = 0.057
==== e(  30) =     5.27962 eV ==== 
     psi = 0.012*[#   6]+0.003*[#  10]+0.002*[#   9]+0.002*[#   5]+0.001*[#   7]
          +0.001*[#   8]
    |psi|^2 = 0.022
==== e(  31) =     5.46804 eV ==== 
     psi = 0.004*[#   7]+0.004*[#   8]
    |psi|^2 = 0.008
==== e(  32) =     5.58825 eV ==== 
     psi = 0.003*[#   6]+0.002*[#   7]+0.002*[#   8]+0.001*[#  10]
    |psi|^2 = 0.010
==== e(  33) =     5.92216 eV ==== 
     psi = 0.003*[#   7]+0.003*[#   8]
    |psi|^2 = 0.007

 k =  -0.2500000000 -0.2500000000 -0.3500000000
==== e(   1) =   -80.47689 eV ==== 
     psi = 0.997*[#   1]+0.003*[#  10]
    |psi|^2 = 1.000
==== e(   2) =   -47.43163 eV ==== 
     psi = 0.495*[#   3]+0.495*[#   4]+0.005*[#   7]+0.005*[#   8]
    |psi|^2 = 1.000
==== e(   3) =   -47.43163 eV ==== 
     psi = 0.495*[#   3]+0.495*[#   4]+0.005*[#   7]+0.005*[#   8]
    |psi|^2 = 1.000
==== e(   4) =   -47.41540 eV ==== 
     psi = 0.985*[#   2]+0.011*[#   6]+0.002*[#  10]+0.001*[#   9]
    |psi|^2 = 1.000
==== e(   5) =   -14.12657 eV ==== 
     psi = 0.866*[#   9]+0.070*[#   6]+0.059*[#   5]+0.002*[#  10]
    |psi|^2 = 0.998
==== e(   6) =    -5.83165 eV ==== 
     psi = 0.595*[#  10]+0.355*[#   5]+0.040*[#   9]+0.001*[#   1]
    |psi|^2 = 0.992
==== e(   7) =    -4.05621 eV ==== 
     psi = 0.442*[#  11]+0.442*[#  12]+0.053*[#   7]+0.053*[#   8]
    |psi|^2 = 0.991
==== e(   8) =    -4.05497 eV ==== 
     psi = 0.443*[#  11]+0.443*[#  12]+0.053*[#   7]+0.053*[#   8]
    |psi|^2 = 0.991
==== e(   9) =    -3.59300 eV ==== 
     psi = 0.430*[#   5]+0.302*[#   6]+0.248*[#  10]
    |psi|^2 = 0.983
==== e(  10) =    -0.76413 eV ==== 
     psi = 0.305*[#   7]+0.305*[#   8]+0.039*[#  11]+0.039*[#  12]+0.003*[#   3]
          +0.003*[#   4]+0.003*[#   6]
    |psi|^2 = 0.699
==== e(  11) =    -0.69530 eV ==== 
     psi = 0.331*[#   7]+0.331*[#   8]+0.042*[#  11]+0.042*[#  12]+0.004*[#   3]
          +0.004*[#   4]
    |psi|^2 = 0.753
==== e(  12) =     0.37752 eV ==== 
     psi = 0.157*[#   6]+0.063*[#   5]+0.043*[#  10]+0.026*[#   9]+0.003*[#   2]
          +0.002*[#   7]+0.002*[#   8]
    |psi|^2 = 0.298
==== e(  13) =     1.09032 eV ==== 
     psi = 0.062*[#   7]+0.062*[#   8]+0.047*[#   6]+0.007*[#   5]+0.005*[#  11]
          +0.005*[#  12]+0.005*[#   9]+0.002*[#  10]
    |psi|^2 = 0.198
==== e(  14) =     1.73834 eV ==== 
     psi = 0.056*[#   6]+0.020*[#   5]+0.018*[#  10]+0.009*[#   9]+0.001*[#   7]
          +0.001*[#   8]+0.001*[#   2]
    |psi|^2 = 0.108
==== e(  15) =     1.82470 eV ==== 
     psi = 0.008*[#   6]
    |psi|^2 = 0.010
==== e(  16) =     1.95431 eV ==== 
     psi = 0.049*[#   7]+0.049*[#   8]+0.006*[#  11]+0.006*[#  12]
    |psi|^2 = 0.112
==== e(  17) =     2.13327 eV ==== 
 
    |psi|^2 = 0.002
==== e(  18) =     2.58371 eV ==== 
     psi = 0.018*[#   6]+0.009*[#   5]+0.006*[#   7]+0.006*[#   8]+0.006*[#  10]
          +0.002*[#   9]+0.001*[#  11]+0.001*[#  12]
    |psi|^2 = 0.050
==== e(  19) =     3.10191 eV ==== 
     psi = 0.007*[#   7]+0.007*[#   8]+0.002*[#  11]+0.002*[#  12]
    |psi|^2 = 0.019
==== e(  20) =     3.32778 eV ==== 
     psi = 0.026*[#   6]+0.010*[#   5]+0.006*[#  10]+0.005*[#   9]
    |psi|^2 = 0.047
==== e(  21) =     3.33971 eV ==== 
     psi = 0.009*[#   7]+0.009*[#   8]+0.002*[#  11]+0.002*[#  12]
    |psi|^2 = 0.023
==== e(  22) =     3.72355 eV ==== 
     psi = 0.013*[#   6]+0.002*[#   7]+0.002*[#   8]+0.001*[#   9]
    |psi|^2 = 0.020
==== e(  23) =     3.76805 eV ==== 
     psi = 0.014*[#   6]+0.005*[#   5]+0.003*[#  10]+0.002*[#   9]
    |psi|^2 = 0.025
==== e(  24) =     4.02132 eV ==== 
 
    |psi|^2 = 0.002
==== e(  25) =     4.36270 eV ==== 
     psi = 0.046*[#   6]+0.015*[#  10]+0.010*[#   7]+0.010*[#   8]+0.008*[#   9]
          +0.007*[#   5]+0.002*[#  11]+0.002*[#  12]
    |psi|^2 = 0.102
==== e(  26) =     4.39982 eV ==== 
 
    |psi|^2 = 0.000
==== e(  27) =     4.62681 eV ==== 
     psi = 0.018*[#   6]+0.004*[#   5]+0.003*[#   9]+0.003*[#  10]
    |psi|^2 = 0.028
==== e(  28) =     4.78103 eV ==== 
     psi = 0.004*[#   7]+0.004*[#   8]+0.001*[#  11]+0.001*[#  12]
    |psi|^2 = 0.011
==== e(  29) =     5.06731 eV ==== 
     psi = 0.009*[#   6]+0.003*[#  10]+0.002*[#   9]+0.002*[#   5]+0.001*[#   7]
          +0.001*[#   8]
    |psi|^2 = 0.020
==== e(  30) =     5.25046 eV ==== 
     psi = 0.003*[#  10]+0.003*[#   6]
    |psi|^2 = 0.008
==== e(  31) =     5.48831 eV ==== 
     psi = 0.019*[#   6]+0.005*[#  10]+0.003*[#   9]+0.002*[#   5]
    |psi|^2 = 0.029
==== e(  32) =     5.63321 eV ==== 
     psi = 0.004*[#   7]+0.004*[#   8]
    |psi|^2 = 0.009
==== e(  33) =     5.80444 eV ==== 
     psi = 0.007*[#   7]+0.007*[#   8]+0.002*[#  11]+0.002*[#  12]
    |psi|^2 = 0.018

 k =  -0.2500000000 -0.2500000000 -0.1750000000
==== e(   1) =   -80.47689 eV ==== 
     psi = 0.997*[#   1]+0.003*[#  10]
    |psi|^2 = 1.000
==== e(   2) =   -47.43163 eV ==== 
     psi = 0.495*[#   3]+0.495*[#   4]+0.005*[#   7]+0.005*[#   8]
    |psi|^2 = 1.000
==== e(   3) =   -47.43163 eV ==== 
     psi = 0.495*[#   3]+0.495*[#   4]+0.005*[#   7]+0.005*[#   8]
    |psi|^2 = 1.000
==== e(   4) =   -47.41540 eV ==== 
     psi = 0.985*[#   2]+0.011*[#   6]+0.002*[#  10]+0.001*[#   9]
    |psi|^2 = 1.000
==== e(   5) =   -14.12657 eV ==== 
     psi = 0.866*[#   9]+0.070*[#   6]+0.059*[#   5]+0.002*[#  10]
    |psi|^2 = 0.998
==== e(   6) =    -5.83074 eV ==== 
     psi = 0.595*[#  10]+0.355*[#   5]+0.040*[#   9]+0.001*[#   1]
    |psi|^2 = 0.992
==== e(   7) =    -4.05635 eV ==== 
     psi = 0.442*[#  11]+0.442*[#  12]+0.053*[#   7]+0.053*[#   8]
    |psi|^2 = 0.991
==== e(   8) =    -4.05509 eV ==== 
     psi = 0.443*[#  11]+0.443*[#  12]+0.053*[#   7]+0.053*[#   8]
    |psi|^2 = 0.991
==== e(   9) =    -3.59864 eV ==== 
     psi = 0.430*[#   5]+0.301*[#   6]+0.247*[#  10]
    |psi|^2 = 0.982
==== e(  10) =    -0.76128 eV ==== 
     psi = 0.305*[#   7]+0.305*[#   8]+0.039*[#  11]+0.039*[#  12]+0.004*[#   6]
          +0.003*[#   3]+0.003*[#   4]
    |psi|^2 = 0.699
==== e(  11) =    -0.69182 eV ==== 
     psi = 0.331*[#   7]+0.331*[#   8]+0.042*[#  11]+0.042*[#  12]+0.004*[#   3]
          +0.004*[#   4]
    |psi|^2 = 0.754
==== e(  12) =     0.48993 eV ==== 
     psi = 0.147*[#   6]+0.061*[#   5]+0.042*[#  10]+0.024*[#   9]+0.004*[#   7]
          +0.004*[#   8]+0.003*[#   2]
    |psi|^2 = 0.288
==== e(  13) =     0.99894 eV ==== 
     psi = 0.071*[#   6]+0.053*[#   7]+0.053*[#   8]+0.017*[#   5]+0.009*[#  10]
          +0.009*[#   9]+0.004*[#  11]+0.004*[#  12]+0.001*[#   2]
    |psi|^2 = 0.223
==== e(  14) =     1.73477 eV ==== 
     psi = 0.037*[#   6]+0.009*[#   5]+0.005*[#   9]+0.005*[#  10]+0.001*[#   7]
          +0.001*[#   8]
    |psi|^2 = 0.059
==== e(  15) =     1.84264 eV ==== 
     psi = 0.042*[#   7]+0.042*[#   8]+0.004*[#  11]+0.004*[#  12]
    |psi|^2 = 0.093
==== e(  16) =     1.90180 eV ==== 
     psi = 0.019*[#   6]+0.010*[#  10]+0.008*[#   5]+0.006*[#   7]+0.006*[#   8]
          +0.003*[#   9]+0.002*[#  11]+0.002*[#  12]
    |psi|^2 = 0.057
==== e(  17) =     2.29400 eV ==== 
     psi = 0.005*[#   7]+0.005*[#   8]+0.002*[#  11]+0.002*[#  12]
    |psi|^2 = 0.014
==== e(  18) =     2.30774 eV ==== 
     psi = 0.009*[#   6]+0.008*[#   7]+0.008*[#   8]+0.003*[#   5]+0.003*[#  10]
          +0.002*[#   9]+0.001*[#  11]+0.001*[#  12]
    |psi|^2 = 0.037
==== e(  19) =     3.06241 eV ==== 
     psi = 0.033*[#   6]+0.010*[#  10]+0.008*[#   5]+0.005*[#   9]+0.002*[#   7]
          +0.002*[#   8]
    |psi|^2 = 0.062
==== e(  20) =     3.17137 eV ==== 
     psi = 0.006*[#   7]+0.006*[#   8]+0.002*[#  11]+0.002*[#  12]
    |psi|^2 = 0.015
==== e(  21) =     3.31452 eV ==== 
     psi = 0.026*[#   6]+0.005*[#   5]+0.005*[#  10]+0.004*[#   9]+0.003*[#   7]
          +0.003*[#   8]
    |psi|^2 = 0.048
==== e(  22) =     3.73687 eV ==== 
     psi = 0.005*[#   6]+0.003*[#   7]+0.003*[#   8]+0.002*[#   5]+0.001*[#  11]
          +0.001*[#  12]
    |psi|^2 = 0.016
==== e(  23) =     4.01299 eV ==== 
     psi = 0.006*[#   7]+0.006*[#   8]+0.002*[#  11]+0.002*[#  12]
    |psi|^2 = 0.017
==== e(  24) =     4.10849 eV ==== 
     psi = 0.009*[#   7]+0.009*[#   8]+0.001*[#  11]+0.001*[#  12]
    |psi|^2 = 0.020
==== e(  25) =     4.26335 eV ==== 
     psi = 0.004*[#   6]+0.002*[#   7]+0.002*[#   8]+0.001*[#   5]
    |psi|^2 = 0.010
==== e(  26) =     4.53138 eV ==== 
     psi = 0.004*[#   7]+0.004*[#   8]+0.001*[#  11]+0.001*[#  12]
    |psi|^2 = 0.010
==== e(  27) =     4.78142 eV ==== 
 
    |psi|^2 = 0.003
==== e(  28) =     4.79350 eV ==== 
     psi = 0.024*[#   6]+0.007*[#  10]+0.006*[#   5]+0.004*[#   9]+0.002*[#   7]
          +0.002*[#   8]
    |psi|^2 = 0.048
==== e(  29) =     4.97105 eV ==== 
     psi = 0.033*[#   6]+0.008*[#  10]+0.005*[#   5]+0.005*[#   9]+0.002*[#   7]
          +0.002*[#   8]
    |psi|^2 = 0.057
==== e(  30) =     5.27962 eV ==== 
     psi = 0.012*[#   6]+0.003*[#  10]+0.002*[#   9]+0.002*[#   5]+0.001*[#   7]
          +0.001*[#   8]
    |psi|^2 = 0.022
==== e(  31) =     5.46804 eV ==== 
     psi = 0.004*[#   7]+0.004*[#   8]
    |psi|^2 = 0.008
==== e(  32) =     5.58825 eV ==== 
     psi = 0.003*[#   6]+0.002*[#   7]+0.002*[#   8]+0.001*[#  10]
    |psi|^2 = 0.010
==== e(  33) =     5.92216 eV ==== 
     psi = 0.003*[#   7]+0.003*[#   8]
    |psi|^2 = 0.007

Lowdin Charges: 

     Atom #   1: total charge =   9.4020, s =  2.8367, 
     Atom #   1: total charge =   9.4020, p =  6.5653, pz=  2.1439, px=  2.2107, py=  2.2107, 
     Atom #   2: total charge =   6.5408, s =  1.8144, 
     Atom #   2: total charge =   6.5408, p =  4.7264, pz=  1.2108, px=  1.7578, py=  1.7578, 
     Spilling Parameter:   0.0036
 
     PROJWFC      :      6.33s CPU      7.23s WALL

 
   This run was terminated on:  21:38:35  16Apr2020            

=------------------------------------------------------------------------------=
   JOB DONE.
=------------------------------------------------------------------------------=
