
     Program PROJWFC v.6.5 starts on 16Apr2020 at 21:27:49 

     This program is part of the open-source Quantum ESPRESSO suite
     for quantum simulation of materials; please cite
         "P. Giannozzi et al., J. Phys.:Condens. Matter 21 395502 (2009);
         "P. Giannozzi et al., J. Phys.:Condens. Matter 29 465901 (2017);
          URL http://www.quantum-espresso.org", 
     in publications or presentations arising from this work. More details at
     http://www.quantum-espresso.org/quote

     Parallel version (MPI), running on     1 processors

     MPI processes distributed on     1 nodes

     Reading xml data from directory:

     /wrk/kfg/julia_data/MgS/dimer.in_vnscf_coords_3/qe.nscf.save/

     IMPORTANT: XC functional enforced from input :
     Exchange-correlation= PBESOL
                           (   1   4  10   8   0   0   0)
     Any further DFT definition will be discarded
     Please, verify this is what you really want

               file mg.pbesol.UPF: wavefunction(s)  3P renormalized
 
     G-vector sticks info
     --------------------
     sticks:   dense  smooth     PW     G-vecs:    dense   smooth      PW
     Sum        3909    2801    777               261761   159925   23349
 

     negative rho (up, down):  6.787E-05 0.000E+00

     Gaussian broadening (read from file): ngauss,degauss=   0    0.010000


     Calling projwave .... 
 
  Problem Sizes 
  natomwfc =           12
  nbnd     =           33
  nkstot   =           64
  npwx     =        20028
  nkb      =           37
 

     Atomic states used for projection
     (read from pseudopotential files):

     state #   1: atom   1 (Mg ), wfc  1 (l=0 m= 1)
     state #   2: atom   1 (Mg ), wfc  2 (l=1 m= 1)
     state #   3: atom   1 (Mg ), wfc  2 (l=1 m= 2)
     state #   4: atom   1 (Mg ), wfc  2 (l=1 m= 3)
     state #   5: atom   1 (Mg ), wfc  3 (l=0 m= 1)
     state #   6: atom   1 (Mg ), wfc  4 (l=1 m= 1)
     state #   7: atom   1 (Mg ), wfc  4 (l=1 m= 2)
     state #   8: atom   1 (Mg ), wfc  4 (l=1 m= 3)
     state #   9: atom   2 (S  ), wfc  1 (l=0 m= 1)
     state #  10: atom   2 (S  ), wfc  2 (l=1 m= 1)
     state #  11: atom   2 (S  ), wfc  2 (l=1 m= 2)
     state #  12: atom   2 (S  ), wfc  2 (l=1 m= 3)

 k =   0.0000000000  0.0000000000  0.0000000000
==== e(   1) =   -80.07156 eV ==== 
     psi = 0.993*[#   1]+0.005*[#  10]
    |psi|^2 = 1.000
==== e(   2) =   -47.08511 eV ==== 
     psi = 0.982*[#   2]+0.011*[#   6]+0.004*[#  10]+0.002*[#   9]
    |psi|^2 = 1.000
==== e(   3) =   -47.00710 eV ==== 
     psi = 0.986*[#   4]+0.010*[#   8]+0.003*[#   3]
    |psi|^2 = 1.000
==== e(   4) =   -47.00710 eV ==== 
     psi = 0.986*[#   3]+0.010*[#   7]+0.003*[#   4]
    |psi|^2 = 1.000
==== e(   5) =   -14.29279 eV ==== 
     psi = 0.825*[#   9]+0.089*[#   6]+0.079*[#   5]+0.004*[#  10]
    |psi|^2 = 0.997
==== e(   6) =    -5.75635 eV ==== 
     psi = 0.650*[#  10]+0.290*[#   5]+0.047*[#   9]+0.002*[#   1]+0.001*[#   2]
          
    |psi|^2 = 0.991
==== e(   7) =    -4.23312 eV ==== 
     psi = 0.726*[#  12]+0.141*[#  11]+0.104*[#   8]+0.020*[#   7]
    |psi|^2 = 0.991
==== e(   8) =    -4.23312 eV ==== 
     psi = 0.726*[#  11]+0.141*[#  12]+0.104*[#   7]+0.020*[#   8]
    |psi|^2 = 0.991
==== e(   9) =    -3.38360 eV ==== 
     psi = 0.448*[#   5]+0.307*[#   6]+0.212*[#  10]+0.001*[#   1]
    |psi|^2 = 0.970
==== e(  10) =    -0.17688 eV ==== 
     psi = 0.517*[#   8]+0.166*[#   7]+0.074*[#  12]+0.024*[#  11]+0.006*[#   4]
          +0.002*[#   3]
    |psi|^2 = 0.789
==== e(  11) =    -0.17688 eV ==== 
     psi = 0.517*[#   7]+0.166*[#   8]+0.074*[#  11]+0.024*[#  12]+0.006*[#   3]
          +0.002*[#   4]
    |psi|^2 = 0.789
==== e(  12) =     0.28573 eV ==== 
     psi = 0.093*[#   6]+0.011*[#   9]+0.006*[#   5]+0.002*[#   2]
    |psi|^2 = 0.112
==== e(  13) =     0.57528 eV ==== 
     psi = 0.124*[#   6]+0.081*[#   5]+0.035*[#  10]+0.030*[#   9]+0.004*[#   2]
          
    |psi|^2 = 0.274
==== e(  14) =     1.46522 eV ==== 
     psi = 0.009*[#   6]+0.007*[#   5]+0.004*[#   9]+0.004*[#  10]
    |psi|^2 = 0.024
==== e(  15) =     1.51075 eV ==== 
 
    |psi|^2 = 0.000
==== e(  16) =     2.84508 eV ==== 
     psi = 0.049*[#   8]+0.009*[#  12]+0.005*[#   7]+0.001*[#  11]
    |psi|^2 = 0.065
==== e(  17) =     2.84508 eV ==== 
     psi = 0.049*[#   7]+0.009*[#  11]+0.005*[#   8]+0.001*[#  12]
    |psi|^2 = 0.065
==== e(  18) =     3.00318 eV ==== 
     psi = 0.044*[#   6]+0.021*[#  10]+0.021*[#   5]+0.012*[#   9]+0.001*[#   2]
          
    |psi|^2 = 0.099
==== e(  19) =     3.14657 eV ==== 
 
    |psi|^2 = 0.000
==== e(  20) =     3.39915 eV ==== 
 
    |psi|^2 = 0.000
==== e(  21) =     3.44169 eV ==== 
     psi = 0.064*[#   6]+0.014*[#   5]+0.012*[#   9]+0.007*[#  10]+0.001*[#   2]
          
    |psi|^2 = 0.098
==== e(  22) =     3.75670 eV ==== 
 
    |psi|^2 = 0.000
==== e(  23) =     3.80447 eV ==== 
     psi = 0.002*[#  12]+0.001*[#   8]
    |psi|^2 = 0.004
==== e(  24) =     3.80447 eV ==== 
     psi = 0.002*[#  11]+0.001*[#   7]
    |psi|^2 = 0.004
==== e(  25) =     4.32198 eV ==== 
     psi = 0.003*[#   6]+0.002*[#   5]
    |psi|^2 = 0.005
==== e(  26) =     4.35625 eV ==== 
     psi = 0.022*[#   7]+0.003*[#  11]+0.001*[#   8]
    |psi|^2 = 0.027
==== e(  27) =     4.35625 eV ==== 
     psi = 0.022*[#   8]+0.003*[#  12]+0.001*[#   7]
    |psi|^2 = 0.027
==== e(  28) =     4.92524 eV ==== 
     psi = 0.010*[#   6]+0.007*[#   5]+0.003*[#  10]+0.002*[#   9]
    |psi|^2 = 0.022
==== e(  29) =     5.24192 eV ==== 
     psi = 0.009*[#   7]+0.007*[#   8]+0.004*[#  11]+0.003*[#  12]
    |psi|^2 = 0.024
==== e(  30) =     5.24192 eV ==== 
     psi = 0.009*[#   8]+0.007*[#   7]+0.004*[#  12]+0.003*[#  11]
    |psi|^2 = 0.024
==== e(  31) =     5.25012 eV ==== 
     psi = 0.005*[#   6]+0.003*[#   5]+0.002*[#   9]
    |psi|^2 = 0.010
==== e(  32) =     5.37732 eV ==== 
 
    |psi|^2 = 0.000
==== e(  33) =     6.12566 eV ==== 
 
    |psi|^2 = 0.000

 k =   0.0000000000  0.0000000000  0.1750000000
==== e(   1) =   -80.07156 eV ==== 
     psi = 0.993*[#   1]+0.005*[#  10]
    |psi|^2 = 1.000
==== e(   2) =   -47.08511 eV ==== 
     psi = 0.982*[#   2]+0.011*[#   6]+0.004*[#  10]+0.002*[#   9]
    |psi|^2 = 1.000
==== e(   3) =   -47.00710 eV ==== 
     psi = 0.987*[#   4]+0.010*[#   8]+0.002*[#   3]
    |psi|^2 = 1.000
==== e(   4) =   -47.00710 eV ==== 
     psi = 0.987*[#   3]+0.010*[#   7]+0.002*[#   4]
    |psi|^2 = 1.000
==== e(   5) =   -14.29279 eV ==== 
     psi = 0.825*[#   9]+0.089*[#   6]+0.079*[#   5]+0.004*[#  10]
    |psi|^2 = 0.997
==== e(   6) =    -5.75712 eV ==== 
     psi = 0.650*[#  10]+0.290*[#   5]+0.046*[#   9]+0.002*[#   1]+0.001*[#   2]
          
    |psi|^2 = 0.991
==== e(   7) =    -4.23307 eV ==== 
     psi = 0.621*[#  12]+0.246*[#  11]+0.089*[#   8]+0.035*[#   7]
    |psi|^2 = 0.991
==== e(   8) =    -4.23307 eV ==== 
     psi = 0.621*[#  11]+0.246*[#  12]+0.089*[#   7]+0.035*[#   8]
    |psi|^2 = 0.991
==== e(   9) =    -3.37781 eV ==== 
     psi = 0.448*[#   5]+0.308*[#   6]+0.213*[#  10]+0.001*[#   1]
    |psi|^2 = 0.971
==== e(  10) =    -0.18008 eV ==== 
     psi = 0.521*[#   8]+0.161*[#   7]+0.075*[#  12]+0.023*[#  11]+0.006*[#   4]
          +0.002*[#   3]
    |psi|^2 = 0.788
==== e(  11) =    -0.18008 eV ==== 
     psi = 0.521*[#   7]+0.161*[#   8]+0.075*[#  11]+0.023*[#  12]+0.006*[#   3]
          +0.002*[#   4]
    |psi|^2 = 0.788
==== e(  12) =     0.24299 eV ==== 
     psi = 0.105*[#   6]+0.038*[#   5]+0.021*[#   9]+0.016*[#  10]+0.003*[#   2]
          
    |psi|^2 = 0.183
==== e(  13) =     0.48691 eV ==== 
     psi = 0.095*[#   6]+0.036*[#   5]+0.017*[#   9]+0.015*[#  10]+0.002*[#   2]
          
    |psi|^2 = 0.166
==== e(  14) =     1.52729 eV ==== 
 
    |psi|^2 = 0.000
==== e(  15) =     1.76513 eV ==== 
     psi = 0.024*[#   6]+0.019*[#   5]+0.010*[#  10]+0.007*[#   9]
    |psi|^2 = 0.061
==== e(  16) =     2.76929 eV ==== 
     psi = 0.044*[#   6]+0.018*[#   5]+0.016*[#  10]+0.011*[#   9]+0.001*[#   2]
          
    |psi|^2 = 0.091
==== e(  17) =     2.93025 eV ==== 
     psi = 0.052*[#   8]+0.011*[#  12]+0.004*[#   7]
    |psi|^2 = 0.069
==== e(  18) =     2.93025 eV ==== 
     psi = 0.052*[#   7]+0.011*[#  11]+0.004*[#   8]
    |psi|^2 = 0.069
==== e(  19) =     3.09159 eV ==== 
 
    |psi|^2 = 0.000
==== e(  20) =     3.15304 eV ==== 
 
    |psi|^2 = 0.000
==== e(  21) =     3.70419 eV ==== 
     psi = 0.007*[#   8]+0.006*[#   7]+0.002*[#  12]+0.001*[#  11]
    |psi|^2 = 0.017
==== e(  22) =     3.70419 eV ==== 
     psi = 0.007*[#   7]+0.006*[#   8]+0.002*[#  11]+0.001*[#  12]
    |psi|^2 = 0.017
==== e(  23) =     3.71682 eV ==== 
     psi = 0.028*[#   6]+0.011*[#   5]+0.006*[#  10]+0.005*[#   9]
    |psi|^2 = 0.050
==== e(  24) =     3.96080 eV ==== 
     psi = 0.041*[#   6]+0.009*[#   5]+0.008*[#   9]+0.003*[#  10]
    |psi|^2 = 0.063
==== e(  25) =     4.26225 eV ==== 
     psi = 0.008*[#   8]+0.003*[#   7]+0.003*[#  12]
    |psi|^2 = 0.014
==== e(  26) =     4.26225 eV ==== 
     psi = 0.008*[#   7]+0.003*[#   8]+0.003*[#  11]
    |psi|^2 = 0.014
==== e(  27) =     4.28798 eV ==== 
 
    |psi|^2 = 0.000
==== e(  28) =     4.76216 eV ==== 
     psi = 0.014*[#   6]+0.007*[#  10]+0.006*[#   5]+0.005*[#   9]
    |psi|^2 = 0.032
==== e(  29) =     5.21117 eV ==== 
 
    |psi|^2 = 0.000
==== e(  30) =     5.47637 eV ==== 
     psi = 0.006*[#   7]+0.005*[#   8]+0.003*[#  11]+0.002*[#  12]
    |psi|^2 = 0.016
==== e(  31) =     5.47637 eV ==== 
     psi = 0.006*[#   8]+0.005*[#   7]+0.003*[#  12]+0.002*[#  11]
    |psi|^2 = 0.016
==== e(  32) =     5.53022 eV ==== 
     psi = 0.012*[#   6]+0.006*[#  10]+0.003*[#   9]+0.002*[#   5]
    |psi|^2 = 0.023
==== e(  33) =     6.01345 eV ==== 
     psi = 0.004*[#   8]
    |psi|^2 = 0.005

 k =   0.0000000000  0.0000000000 -0.3500000000
==== e(   1) =   -80.07156 eV ==== 
     psi = 0.993*[#   1]+0.005*[#  10]
    |psi|^2 = 1.000
==== e(   2) =   -47.08511 eV ==== 
     psi = 0.982*[#   2]+0.011*[#   6]+0.004*[#  10]+0.002*[#   9]
    |psi|^2 = 1.000
==== e(   3) =   -47.00710 eV ==== 
     psi = 0.989*[#   4]+0.010*[#   8]
    |psi|^2 = 1.000
==== e(   4) =   -47.00710 eV ==== 
     psi = 0.989*[#   3]+0.010*[#   7]
    |psi|^2 = 1.000
==== e(   5) =   -14.29279 eV ==== 
     psi = 0.825*[#   9]+0.089*[#   6]+0.079*[#   5]+0.004*[#  10]
    |psi|^2 = 0.997
==== e(   6) =    -5.75788 eV ==== 
     psi = 0.650*[#  10]+0.290*[#   5]+0.046*[#   9]+0.002*[#   1]+0.001*[#   2]
          
    |psi|^2 = 0.991
==== e(   7) =    -4.23302 eV ==== 
     psi = 0.816*[#  11]+0.117*[#   7]+0.051*[#  12]+0.007*[#   8]
    |psi|^2 = 0.991
==== e(   8) =    -4.23302 eV ==== 
     psi = 0.816*[#  12]+0.117*[#   8]+0.051*[#  11]+0.007*[#   7]
    |psi|^2 = 0.991
==== e(   9) =    -3.37198 eV ==== 
     psi = 0.448*[#   5]+0.310*[#   6]+0.213*[#  10]+0.001*[#   1]
    |psi|^2 = 0.972
==== e(  10) =    -0.18325 eV ==== 
     psi = 0.374*[#   7]+0.307*[#   8]+0.054*[#  11]+0.044*[#  12]+0.005*[#   3]
          +0.004*[#   4]
    |psi|^2 = 0.787
==== e(  11) =    -0.18325 eV ==== 
     psi = 0.374*[#   8]+0.307*[#   7]+0.054*[#  12]+0.044*[#  11]+0.005*[#   4]
          +0.004*[#   3]
    |psi|^2 = 0.787
==== e(  12) =     0.18335 eV ==== 
     psi = 0.112*[#   6]+0.064*[#   5]+0.029*[#   9]+0.027*[#  10]+0.003*[#   2]
          
    |psi|^2 = 0.236
==== e(  13) =     0.45210 eV ==== 
     psi = 0.082*[#   6]+0.009*[#   9]+0.005*[#   5]+0.001*[#   2]
    |psi|^2 = 0.098
==== e(  14) =     1.54496 eV ==== 
 
    |psi|^2 = 0.000
==== e(  15) =     2.08936 eV ==== 
     psi = 0.040*[#   6]+0.029*[#   5]+0.020*[#  10]+0.010*[#   9]+0.001*[#   2]
          
    |psi|^2 = 0.100
==== e(  16) =     2.68283 eV ==== 
     psi = 0.014*[#   6]+0.010*[#   5]+0.003*[#   9]+0.002*[#  10]
    |psi|^2 = 0.028
==== e(  17) =     2.93287 eV ==== 
 
    |psi|^2 = 0.000
==== e(  18) =     3.05366 eV ==== 
     psi = 0.050*[#   8]+0.013*[#   7]+0.011*[#  12]+0.003*[#  11]
    |psi|^2 = 0.077
==== e(  19) =     3.05366 eV ==== 
     psi = 0.050*[#   7]+0.013*[#   8]+0.011*[#  11]+0.003*[#  12]
    |psi|^2 = 0.077
==== e(  20) =     3.15964 eV ==== 
 
    |psi|^2 = 0.000
==== e(  21) =     3.35124 eV ==== 
     psi = 0.043*[#   6]+0.015*[#   5]+0.012*[#   9]+0.010*[#  10]+0.001*[#   2]
          
    |psi|^2 = 0.082
==== e(  22) =     3.54278 eV ==== 
     psi = 0.018*[#   8]+0.002*[#  12]
    |psi|^2 = 0.022
==== e(  23) =     3.54278 eV ==== 
     psi = 0.018*[#   7]+0.002*[#  11]
    |psi|^2 = 0.022
==== e(  24) =     4.05508 eV ==== 
     psi = 0.041*[#   6]+0.007*[#   5]+0.006*[#   9]+0.003*[#  10]
    |psi|^2 = 0.058
==== e(  25) =     4.23875 eV ==== 
     psi = 0.003*[#  11]+0.001*[#   7]
    |psi|^2 = 0.005
==== e(  26) =     4.23875 eV ==== 
     psi = 0.003*[#  12]+0.001*[#   8]
    |psi|^2 = 0.005
==== e(  27) =     4.91135 eV ==== 
     psi = 0.011*[#   6]+0.008*[#  10]+0.006*[#   5]+0.003*[#   9]
    |psi|^2 = 0.028
==== e(  28) =     5.09954 eV ==== 
 
    |psi|^2 = 0.000
==== e(  29) =     5.11421 eV ==== 
 
    |psi|^2 = 0.000
==== e(  30) =     5.17835 eV ==== 
 
    |psi|^2 = 0.000
==== e(  31) =     5.49866 eV ==== 
 
    |psi|^2 = 0.001
==== e(  32) =     5.49866 eV ==== 
 
    |psi|^2 = 0.001
==== e(  33) =     5.62089 eV ==== 
     psi = 0.012*[#   6]+0.005*[#   5]+0.002*[#   9]+0.001*[#  10]
    |psi|^2 = 0.020

 k =   0.0000000000  0.0000000000 -0.1750000000
==== e(   1) =   -80.07156 eV ==== 
     psi = 0.993*[#   1]+0.005*[#  10]
    |psi|^2 = 1.000
==== e(   2) =   -47.08511 eV ==== 
     psi = 0.982*[#   2]+0.011*[#   6]+0.004*[#  10]+0.002*[#   9]
    |psi|^2 = 1.000
==== e(   3) =   -47.00710 eV ==== 
     psi = 0.864*[#   4]+0.126*[#   3]+0.009*[#   8]+0.001*[#   7]
    |psi|^2 = 1.000
==== e(   4) =   -47.00710 eV ==== 
     psi = 0.864*[#   3]+0.126*[#   4]+0.009*[#   7]+0.001*[#   8]
    |psi|^2 = 1.000
==== e(   5) =   -14.29279 eV ==== 
     psi = 0.825*[#   9]+0.089*[#   6]+0.079*[#   5]+0.004*[#  10]
    |psi|^2 = 0.997
==== e(   6) =    -5.75712 eV ==== 
     psi = 0.650*[#  10]+0.290*[#   5]+0.046*[#   9]+0.002*[#   1]+0.001*[#   2]
          
    |psi|^2 = 0.991
==== e(   7) =    -4.23307 eV ==== 
     psi = 0.733*[#  11]+0.133*[#  12]+0.105*[#   7]+0.019*[#   8]
    |psi|^2 = 0.991
==== e(   8) =    -4.23307 eV ==== 
     psi = 0.733*[#  12]+0.133*[#  11]+0.105*[#   8]+0.019*[#   7]
    |psi|^2 = 0.991
==== e(   9) =    -3.37781 eV ==== 
     psi = 0.448*[#   5]+0.308*[#   6]+0.213*[#  10]+0.001*[#   1]
    |psi|^2 = 0.971
==== e(  10) =    -0.18008 eV ==== 
     psi = 0.661*[#   8]+0.095*[#  12]+0.021*[#   7]+0.008*[#   4]+0.003*[#  11]
          
    |psi|^2 = 0.788
==== e(  11) =    -0.18008 eV ==== 
     psi = 0.661*[#   7]+0.095*[#  11]+0.021*[#   8]+0.008*[#   3]+0.003*[#  12]
          
    |psi|^2 = 0.788
==== e(  12) =     0.24299 eV ==== 
     psi = 0.105*[#   6]+0.038*[#   5]+0.021*[#   9]+0.016*[#  10]+0.003*[#   2]
          
    |psi|^2 = 0.183
==== e(  13) =     0.48691 eV ==== 
     psi = 0.095*[#   6]+0.036*[#   5]+0.017*[#   9]+0.015*[#  10]+0.002*[#   2]
          
    |psi|^2 = 0.166
==== e(  14) =     1.52729 eV ==== 
 
    |psi|^2 = 0.000
==== e(  15) =     1.76513 eV ==== 
     psi = 0.024*[#   6]+0.019*[#   5]+0.010*[#  10]+0.007*[#   9]
    |psi|^2 = 0.061
==== e(  16) =     2.76929 eV ==== 
     psi = 0.044*[#   6]+0.018*[#   5]+0.016*[#  10]+0.011*[#   9]+0.001*[#   2]
          
    |psi|^2 = 0.091
==== e(  17) =     2.93025 eV ==== 
     psi = 0.040*[#   7]+0.016*[#   8]+0.008*[#  11]+0.003*[#  12]
    |psi|^2 = 0.069
==== e(  18) =     2.93025 eV ==== 
     psi = 0.040*[#   8]+0.016*[#   7]+0.008*[#  12]+0.003*[#  11]
    |psi|^2 = 0.069
==== e(  19) =     3.09159 eV ==== 
 
    |psi|^2 = 0.000
==== e(  20) =     3.15304 eV ==== 
 
    |psi|^2 = 0.000
==== e(  21) =     3.70419 eV ==== 
     psi = 0.013*[#   7]+0.003*[#  11]
    |psi|^2 = 0.017
==== e(  22) =     3.70419 eV ==== 
     psi = 0.013*[#   8]+0.003*[#  12]
    |psi|^2 = 0.017
==== e(  23) =     3.71682 eV ==== 
     psi = 0.028*[#   6]+0.011*[#   5]+0.006*[#  10]+0.005*[#   9]
    |psi|^2 = 0.050
==== e(  24) =     3.96080 eV ==== 
     psi = 0.041*[#   6]+0.009*[#   5]+0.008*[#   9]+0.003*[#  10]
    |psi|^2 = 0.063
==== e(  25) =     4.26225 eV ==== 
     psi = 0.008*[#   8]+0.003*[#  12]+0.002*[#   7]
    |psi|^2 = 0.014
==== e(  26) =     4.26225 eV ==== 
     psi = 0.008*[#   7]+0.003*[#  11]+0.002*[#   8]
    |psi|^2 = 0.014
==== e(  27) =     4.28798 eV ==== 
 
    |psi|^2 = 0.000
==== e(  28) =     4.76216 eV ==== 
     psi = 0.014*[#   6]+0.007*[#  10]+0.006*[#   5]+0.005*[#   9]
    |psi|^2 = 0.032
==== e(  29) =     5.21117 eV ==== 
 
    |psi|^2 = 0.000
==== e(  30) =     5.47637 eV ==== 
     psi = 0.011*[#   8]+0.005*[#  12]
    |psi|^2 = 0.016
==== e(  31) =     5.47637 eV ==== 
     psi = 0.011*[#   7]+0.005*[#  11]
    |psi|^2 = 0.016
==== e(  32) =     5.53022 eV ==== 
     psi = 0.012*[#   6]+0.006*[#  10]+0.003*[#   9]+0.002*[#   5]
    |psi|^2 = 0.023
==== e(  33) =     6.01345 eV ==== 
     psi = 0.003*[#   7]+0.001*[#   8]
    |psi|^2 = 0.005

 k =   0.0000000000  0.2500000000  0.0000000000
==== e(   1) =   -80.07156 eV ==== 
     psi = 0.993*[#   1]+0.005*[#  10]
    |psi|^2 = 1.000
==== e(   2) =   -47.08511 eV ==== 
     psi = 0.982*[#   2]+0.011*[#   6]+0.004*[#  10]+0.002*[#   9]
    |psi|^2 = 1.000
==== e(   3) =   -47.00710 eV ==== 
     psi = 0.989*[#   3]+0.010*[#   7]
    |psi|^2 = 1.000
==== e(   4) =   -47.00710 eV ==== 
     psi = 0.989*[#   4]+0.010*[#   8]
    |psi|^2 = 1.000
==== e(   5) =   -14.29272 eV ==== 
     psi = 0.825*[#   9]+0.089*[#   6]+0.079*[#   5]+0.004*[#  10]
    |psi|^2 = 0.997
==== e(   6) =    -5.75330 eV ==== 
     psi = 0.652*[#  10]+0.288*[#   5]+0.047*[#   9]+0.002*[#   1]+0.001*[#   2]
          
    |psi|^2 = 0.991
==== e(   7) =    -4.24706 eV ==== 
     psi = 0.861*[#  12]+0.129*[#   8]
    |psi|^2 = 0.991
==== e(   8) =    -4.23193 eV ==== 
     psi = 0.867*[#  11]+0.124*[#   7]
    |psi|^2 = 0.991
==== e(   9) =    -3.36008 eV ==== 
     psi = 0.448*[#   5]+0.312*[#   6]+0.210*[#  10]+0.001*[#   1]
    |psi|^2 = 0.973
==== e(  10) =    -0.54136 eV ==== 
     psi = 0.546*[#   8]+0.087*[#  12]+0.007*[#   4]+0.006*[#   6]
    |psi|^2 = 0.645
==== e(  11) =    -0.14587 eV ==== 
     psi = 0.691*[#   7]+0.099*[#  11]+0.008*[#   3]
    |psi|^2 = 0.798
==== e(  12) =     0.61119 eV ==== 
     psi = 0.067*[#   8]+0.053*[#   6]+0.008*[#  12]+0.006*[#   9]+0.002*[#   5]
          
    |psi|^2 = 0.138
==== e(  13) =     0.71973 eV ==== 
     psi = 0.158*[#   6]+0.089*[#   5]+0.038*[#  10]+0.037*[#   9]+0.005*[#   2]
          
    |psi|^2 = 0.326
==== e(  14) =     1.58106 eV ==== 
     psi = 0.016*[#   8]+0.003*[#   5]+0.002*[#   6]+0.002*[#  10]+0.002*[#   9]
          +0.001*[#  12]
    |psi|^2 = 0.027
==== e(  15) =     1.78187 eV ==== 
     psi = 0.080*[#   8]+0.011*[#  12]+0.005*[#   6]+0.002*[#   9]+0.002*[#   5]
          
    |psi|^2 = 0.102
==== e(  16) =     2.28914 eV ==== 
     psi = 0.003*[#  10]+0.002*[#   5]
    |psi|^2 = 0.008
==== e(  17) =     2.50564 eV ==== 
     psi = 0.013*[#   7]+0.002*[#  11]
    |psi|^2 = 0.015
==== e(  18) =     2.62601 eV ==== 
     psi = 0.056*[#   6]+0.017*[#   5]+0.011*[#   9]+0.009*[#  10]+0.003*[#   8]
          +0.001*[#   2]+0.001*[#  12]
    |psi|^2 = 0.100
==== e(  19) =     3.12272 eV ==== 
     psi = 0.035*[#   7]+0.009*[#  11]
    |psi|^2 = 0.045
==== e(  20) =     3.20838 eV ==== 
     psi = 0.012*[#   8]+0.002*[#  12]
    |psi|^2 = 0.015
==== e(  21) =     3.29692 eV ==== 
     psi = 0.013*[#   6]+0.009*[#  10]+0.006*[#   5]+0.006*[#   8]+0.004*[#   9]
          +0.002*[#  12]
    |psi|^2 = 0.041
==== e(  22) =     3.87215 eV ==== 
     psi = 0.022*[#   6]+0.005*[#   9]+0.005*[#  10]+0.005*[#   5]+0.004*[#   8]
          
    |psi|^2 = 0.042
==== e(  23) =     4.15098 eV ==== 
     psi = 0.007*[#   7]+0.003*[#  11]
    |psi|^2 = 0.010
==== e(  24) =     4.23476 eV ==== 
     psi = 0.025*[#   8]+0.008*[#  12]
    |psi|^2 = 0.036
==== e(  25) =     4.51395 eV ==== 
     psi = 0.002*[#   8]
    |psi|^2 = 0.004
==== e(  26) =     4.53510 eV ==== 
     psi = 0.002*[#   7]+0.002*[#  11]
    |psi|^2 = 0.004
==== e(  27) =     4.76638 eV ==== 
     psi = 0.028*[#   6]+0.011*[#   5]+0.004*[#   9]+0.004*[#  10]
    |psi|^2 = 0.048
==== e(  28) =     4.96088 eV ==== 
     psi = 0.011*[#   7]+0.002*[#  11]
    |psi|^2 = 0.013
==== e(  29) =     5.17926 eV ==== 
 
    |psi|^2 = 0.002
==== e(  30) =     5.28076 eV ==== 
     psi = 0.018*[#   7]+0.003*[#  11]
    |psi|^2 = 0.021
==== e(  31) =     5.30862 eV ==== 
     psi = 0.002*[#   5]
    |psi|^2 = 0.005
==== e(  32) =     5.59655 eV ==== 
     psi = 0.014*[#   6]+0.004*[#   5]+0.003*[#   9]+0.001*[#  10]
    |psi|^2 = 0.023
==== e(  33) =     5.68602 eV ==== 
     psi = 0.010*[#   8]
    |psi|^2 = 0.011

 k =   0.0000000000  0.2500000000  0.1750000000
==== e(   1) =   -80.07156 eV ==== 
     psi = 0.993*[#   1]+0.005*[#  10]
    |psi|^2 = 1.000
==== e(   2) =   -47.08511 eV ==== 
     psi = 0.982*[#   2]+0.011*[#   6]+0.004*[#  10]+0.002*[#   9]
    |psi|^2 = 1.000
==== e(   3) =   -47.00710 eV ==== 
     psi = 0.989*[#   3]+0.010*[#   7]
    |psi|^2 = 1.000
==== e(   4) =   -47.00710 eV ==== 
     psi = 0.989*[#   4]+0.010*[#   8]
    |psi|^2 = 1.000
==== e(   5) =   -14.29272 eV ==== 
     psi = 0.825*[#   9]+0.089*[#   6]+0.079*[#   5]+0.004*[#  10]
    |psi|^2 = 0.997
==== e(   6) =    -5.75404 eV ==== 
     psi = 0.652*[#  10]+0.288*[#   5]+0.046*[#   9]+0.002*[#   1]+0.001*[#   2]
          
    |psi|^2 = 0.991
==== e(   7) =    -4.24697 eV ==== 
     psi = 0.861*[#  12]+0.129*[#   8]
    |psi|^2 = 0.991
==== e(   8) =    -4.23188 eV ==== 
     psi = 0.867*[#  11]+0.124*[#   7]
    |psi|^2 = 0.991
==== e(   9) =    -3.35463 eV ==== 
     psi = 0.448*[#   5]+0.313*[#   6]+0.210*[#  10]+0.001*[#   1]
    |psi|^2 = 0.974
==== e(  10) =    -0.54357 eV ==== 
     psi = 0.548*[#   8]+0.086*[#  12]+0.007*[#   4]+0.005*[#   6]
    |psi|^2 = 0.646
==== e(  11) =    -0.14894 eV ==== 
     psi = 0.690*[#   7]+0.098*[#  11]+0.008*[#   3]
    |psi|^2 = 0.797
==== e(  12) =     0.44728 eV ==== 
     psi = 0.111*[#   6]+0.056*[#   5]+0.026*[#   9]+0.024*[#  10]+0.014*[#   8]
          +0.003*[#   2]+0.002*[#  12]
    |psi|^2 = 0.238
==== e(  13) =     0.79574 eV ==== 
     psi = 0.084*[#   6]+0.054*[#   8]+0.023*[#   5]+0.013*[#   9]+0.008*[#  10]
          +0.007*[#  12]+0.002*[#   2]
    |psi|^2 = 0.192
==== e(  14) =     1.66570 eV ==== 
     psi = 0.045*[#   8]+0.008*[#   6]+0.006*[#   5]+0.005*[#  12]+0.004*[#  10]
          +0.002*[#   9]
    |psi|^2 = 0.071
==== e(  15) =     1.95205 eV ==== 
     psi = 0.052*[#   8]+0.010*[#   6]+0.009*[#   5]+0.008*[#  12]+0.006*[#  10]
          +0.003*[#   9]
    |psi|^2 = 0.089
==== e(  16) =     2.13588 eV ==== 
     psi = 0.022*[#   6]+0.009*[#   5]+0.005*[#   9]+0.005*[#  10]
    |psi|^2 = 0.042
==== e(  17) =     2.53288 eV ==== 
     psi = 0.012*[#   7]+0.002*[#  11]
    |psi|^2 = 0.013
==== e(  18) =     2.81263 eV ==== 
     psi = 0.035*[#   6]+0.008*[#   5]+0.006*[#   9]+0.005*[#   8]+0.003*[#  10]
          +0.001*[#  12]
    |psi|^2 = 0.060
==== e(  19) =     3.05289 eV ==== 
     psi = 0.013*[#   6]+0.008*[#  10]+0.007*[#   5]+0.004*[#   9]+0.002*[#   8]
          
    |psi|^2 = 0.035
==== e(  20) =     3.16667 eV ==== 
     psi = 0.039*[#   7]+0.010*[#  11]
    |psi|^2 = 0.050
==== e(  21) =     3.34961 eV ==== 
     psi = 0.010*[#   8]+0.003*[#  12]
    |psi|^2 = 0.015
==== e(  22) =     3.81898 eV ==== 
     psi = 0.006*[#   8]+0.003*[#   5]+0.003*[#   6]+0.002*[#  12]+0.001*[#  10]
          
    |psi|^2 = 0.015
==== e(  23) =     3.99752 eV ==== 
     psi = 0.014*[#   7]+0.004*[#  11]
    |psi|^2 = 0.018
==== e(  24) =     4.28007 eV ==== 
     psi = 0.017*[#   6]+0.013*[#   8]+0.006*[#   5]+0.004*[#   9]+0.004*[#  12]
          +0.003*[#  10]
    |psi|^2 = 0.046
==== e(  25) =     4.46054 eV ==== 
     psi = 0.005*[#   8]+0.005*[#   6]+0.002*[#  10]+0.002*[#  12]+0.002*[#   5]
          +0.001*[#   9]
    |psi|^2 = 0.018
==== e(  26) =     4.46953 eV ==== 
     psi = 0.002*[#   7]+0.001*[#  11]
    |psi|^2 = 0.004
==== e(  27) =     4.72842 eV ==== 
     psi = 0.041*[#   6]+0.011*[#   5]+0.010*[#   9]+0.009*[#  10]+0.006*[#   8]
          +0.001*[#  12]+0.001*[#   2]
    |psi|^2 = 0.079
==== e(  28) =     4.91038 eV ==== 
     psi = 0.005*[#   6]+0.002*[#   5]+0.001*[#   9]+0.001*[#  10]
    |psi|^2 = 0.009
==== e(  29) =     4.99045 eV ==== 
     psi = 0.011*[#   7]+0.002*[#  11]
    |psi|^2 = 0.013
==== e(  30) =     5.20303 eV ==== 
     psi = 0.012*[#   6]+0.005*[#   8]+0.002*[#   5]+0.002*[#   9]+0.001*[#  10]
          
    |psi|^2 = 0.023
==== e(  31) =     5.34839 eV ==== 
     psi = 0.005*[#   7]
    |psi|^2 = 0.005
==== e(  32) =     5.49158 eV ==== 
     psi = 0.004*[#   6]+0.002*[#   8]
    |psi|^2 = 0.009
==== e(  33) =     5.77357 eV ==== 
     psi = 0.002*[#   8]
    |psi|^2 = 0.004

 k =   0.0000000000  0.2500000000 -0.3500000000
==== e(   1) =   -80.07156 eV ==== 
     psi = 0.993*[#   1]+0.005*[#  10]
    |psi|^2 = 1.000
==== e(   2) =   -47.08511 eV ==== 
     psi = 0.982*[#   2]+0.011*[#   6]+0.004*[#  10]+0.002*[#   9]
    |psi|^2 = 1.000
==== e(   3) =   -47.00710 eV ==== 
     psi = 0.989*[#   3]+0.010*[#   7]
    |psi|^2 = 1.000
==== e(   4) =   -47.00710 eV ==== 
     psi = 0.989*[#   4]+0.010*[#   8]
    |psi|^2 = 1.000
==== e(   5) =   -14.29272 eV ==== 
     psi = 0.825*[#   9]+0.089*[#   6]+0.079*[#   5]+0.004*[#  10]
    |psi|^2 = 0.997
==== e(   6) =    -5.75478 eV ==== 
     psi = 0.652*[#  10]+0.288*[#   5]+0.046*[#   9]+0.002*[#   1]+0.001*[#   2]
          
    |psi|^2 = 0.991
==== e(   7) =    -4.24688 eV ==== 
     psi = 0.861*[#  12]+0.129*[#   8]
    |psi|^2 = 0.991
==== e(   8) =    -4.23183 eV ==== 
     psi = 0.867*[#  11]+0.124*[#   7]
    |psi|^2 = 0.991
==== e(   9) =    -3.34914 eV ==== 
     psi = 0.448*[#   5]+0.314*[#   6]+0.211*[#  10]+0.001*[#   1]
    |psi|^2 = 0.975
==== e(  10) =    -0.54577 eV ==== 
     psi = 0.551*[#   8]+0.086*[#  12]+0.007*[#   4]+0.004*[#   6]
    |psi|^2 = 0.648
==== e(  11) =    -0.15199 eV ==== 
     psi = 0.689*[#   7]+0.098*[#  11]+0.008*[#   3]
    |psi|^2 = 0.796
==== e(  12) =     0.34641 eV ==== 
     psi = 0.120*[#   6]+0.066*[#   5]+0.030*[#   9]+0.029*[#  10]+0.003*[#   2]
          +0.003*[#   8]
    |psi|^2 = 0.252
==== e(  13) =     0.82675 eV ==== 
     psi = 0.067*[#   6]+0.064*[#   8]+0.008*[#   9]+0.008*[#  12]+0.007*[#   5]
          +0.001*[#   2]
    |psi|^2 = 0.156
==== e(  14) =     1.80538 eV ==== 
     psi = 0.083*[#   8]+0.013*[#  12]+0.012*[#   6]+0.008*[#   5]+0.005*[#  10]
          +0.003*[#   9]+0.001*[#   4]
    |psi|^2 = 0.125
==== e(  15) =     1.82389 eV ==== 
     psi = 0.013*[#   6]+0.010*[#   8]+0.009*[#   5]+0.006*[#  10]+0.003*[#   9]
          
    |psi|^2 = 0.041
==== e(  16) =     2.38228 eV ==== 
     psi = 0.030*[#   6]+0.019*[#   5]+0.010*[#  10]+0.009*[#   8]+0.006*[#   9]
          +0.002*[#  12]
    |psi|^2 = 0.077
==== e(  17) =     2.56226 eV ==== 
     psi = 0.010*[#   7]+0.001*[#  11]
    |psi|^2 = 0.011
==== e(  18) =     2.76623 eV ==== 
     psi = 0.016*[#   6]+0.005*[#   8]+0.005*[#   5]+0.003*[#   9]
    |psi|^2 = 0.031
==== e(  19) =     3.08473 eV ==== 
     psi = 0.004*[#   6]+0.002*[#   8]
    |psi|^2 = 0.006
==== e(  20) =     3.21028 eV ==== 
     psi = 0.043*[#   7]+0.010*[#  11]
    |psi|^2 = 0.054
==== e(  21) =     3.41501 eV ==== 
     psi = 0.024*[#   6]+0.011*[#   5]+0.007*[#   9]+0.006*[#  10]
    |psi|^2 = 0.049
==== e(  22) =     3.50807 eV ==== 
     psi = 0.014*[#   8]+0.006*[#  12]
    |psi|^2 = 0.021
==== e(  23) =     3.91774 eV ==== 
     psi = 0.023*[#   7]+0.007*[#  11]
    |psi|^2 = 0.030
==== e(  24) =     4.28951 eV ==== 
     psi = 0.013*[#   6]+0.005*[#   5]+0.003*[#   9]+0.002*[#  10]
    |psi|^2 = 0.024
==== e(  25) =     4.34167 eV ==== 
 
    |psi|^2 = 0.000
==== e(  26) =     4.38143 eV ==== 
     psi = 0.010*[#   6]+0.007*[#   8]+0.005*[#  10]+0.003*[#   9]+0.003*[#   5]
          +0.002*[#  12]
    |psi|^2 = 0.030
==== e(  27) =     4.69753 eV ==== 
     psi = 0.020*[#   6]+0.006*[#   5]+0.005*[#  10]+0.005*[#   9]+0.002*[#   8]
          
    |psi|^2 = 0.039
==== e(  28) =     4.86866 eV ==== 
     psi = 0.001*[#   7]
    |psi|^2 = 0.002
==== e(  29) =     5.14180 eV ==== 
     psi = 0.037*[#   6]+0.009*[#   5]+0.007*[#   9]+0.006*[#  10]
    |psi|^2 = 0.060
==== e(  30) =     5.17528 eV ==== 
     psi = 0.022*[#   8]+0.008*[#   6]+0.004*[#  12]+0.002*[#   9]
    |psi|^2 = 0.038
==== e(  31) =     5.54447 eV ==== 
     psi = 0.010*[#   6]+0.004*[#   8]+0.002*[#   9]+0.002*[#   5]+0.001*[#  10]
          
    |psi|^2 = 0.021
==== e(  32) =     5.69087 eV ==== 
 
    |psi|^2 = 0.002
==== e(  33) =     5.91299 eV ==== 
     psi = 0.005*[#   7]+0.001*[#  11]
    |psi|^2 = 0.006

 k =   0.0000000000  0.2500000000 -0.1750000000
==== e(   1) =   -80.07156 eV ==== 
     psi = 0.993*[#   1]+0.005*[#  10]
    |psi|^2 = 1.000
==== e(   2) =   -47.08511 eV ==== 
     psi = 0.982*[#   2]+0.011*[#   6]+0.004*[#  10]+0.002*[#   9]
    |psi|^2 = 1.000
==== e(   3) =   -47.00710 eV ==== 
     psi = 0.989*[#   3]+0.010*[#   7]
    |psi|^2 = 1.000
==== e(   4) =   -47.00710 eV ==== 
     psi = 0.989*[#   4]+0.010*[#   8]
    |psi|^2 = 1.000
==== e(   5) =   -14.29272 eV ==== 
     psi = 0.825*[#   9]+0.089*[#   6]+0.079*[#   5]+0.004*[#  10]
    |psi|^2 = 0.997
==== e(   6) =    -5.75404 eV ==== 
     psi = 0.652*[#  10]+0.288*[#   5]+0.046*[#   9]+0.002*[#   1]+0.001*[#   2]
          
    |psi|^2 = 0.991
==== e(   7) =    -4.24697 eV ==== 
     psi = 0.861*[#  12]+0.129*[#   8]
    |psi|^2 = 0.991
==== e(   8) =    -4.23188 eV ==== 
     psi = 0.867*[#  11]+0.124*[#   7]
    |psi|^2 = 0.991
==== e(   9) =    -3.35463 eV ==== 
     psi = 0.448*[#   5]+0.313*[#   6]+0.210*[#  10]+0.001*[#   1]
    |psi|^2 = 0.974
==== e(  10) =    -0.54357 eV ==== 
     psi = 0.548*[#   8]+0.086*[#  12]+0.007*[#   4]+0.005*[#   6]
    |psi|^2 = 0.646
==== e(  11) =    -0.14894 eV ==== 
     psi = 0.690*[#   7]+0.098*[#  11]+0.008*[#   3]
    |psi|^2 = 0.797
==== e(  12) =     0.44728 eV ==== 
     psi = 0.111*[#   6]+0.056*[#   5]+0.026*[#   9]+0.024*[#  10]+0.014*[#   8]
          +0.003*[#   2]+0.002*[#  12]
    |psi|^2 = 0.238
==== e(  13) =     0.79574 eV ==== 
     psi = 0.084*[#   6]+0.054*[#   8]+0.023*[#   5]+0.013*[#   9]+0.008*[#  10]
          +0.007*[#  12]+0.002*[#   2]
    |psi|^2 = 0.192
==== e(  14) =     1.66570 eV ==== 
     psi = 0.045*[#   8]+0.008*[#   6]+0.006*[#   5]+0.005*[#  12]+0.004*[#  10]
          +0.002*[#   9]
    |psi|^2 = 0.071
==== e(  15) =     1.95205 eV ==== 
     psi = 0.052*[#   8]+0.010*[#   6]+0.009*[#   5]+0.008*[#  12]+0.006*[#  10]
          +0.003*[#   9]
    |psi|^2 = 0.089
==== e(  16) =     2.13588 eV ==== 
     psi = 0.022*[#   6]+0.009*[#   5]+0.005*[#   9]+0.005*[#  10]
    |psi|^2 = 0.042
==== e(  17) =     2.53288 eV ==== 
     psi = 0.012*[#   7]+0.002*[#  11]
    |psi|^2 = 0.013
==== e(  18) =     2.81263 eV ==== 
     psi = 0.035*[#   6]+0.008*[#   5]+0.006*[#   9]+0.005*[#   8]+0.003*[#  10]
          +0.001*[#  12]
    |psi|^2 = 0.060
==== e(  19) =     3.05289 eV ==== 
     psi = 0.013*[#   6]+0.008*[#  10]+0.007*[#   5]+0.004*[#   9]+0.002*[#   8]
          
    |psi|^2 = 0.035
==== e(  20) =     3.16667 eV ==== 
     psi = 0.039*[#   7]+0.010*[#  11]
    |psi|^2 = 0.050
==== e(  21) =     3.34961 eV ==== 
     psi = 0.010*[#   8]+0.003*[#  12]
    |psi|^2 = 0.015
==== e(  22) =     3.81898 eV ==== 
     psi = 0.006*[#   8]+0.003*[#   5]+0.003*[#   6]+0.002*[#  12]+0.001*[#  10]
          
    |psi|^2 = 0.015
==== e(  23) =     3.99752 eV ==== 
     psi = 0.014*[#   7]+0.004*[#  11]
    |psi|^2 = 0.018
==== e(  24) =     4.28007 eV ==== 
     psi = 0.017*[#   6]+0.013*[#   8]+0.006*[#   5]+0.004*[#   9]+0.004*[#  12]
          +0.003*[#  10]
    |psi|^2 = 0.046
==== e(  25) =     4.46054 eV ==== 
     psi = 0.005*[#   8]+0.005*[#   6]+0.002*[#  10]+0.002*[#  12]+0.002*[#   5]
          +0.001*[#   9]
    |psi|^2 = 0.018
==== e(  26) =     4.46953 eV ==== 
     psi = 0.002*[#   7]+0.001*[#  11]
    |psi|^2 = 0.004
==== e(  27) =     4.72842 eV ==== 
     psi = 0.041*[#   6]+0.011*[#   5]+0.010*[#   9]+0.009*[#  10]+0.006*[#   8]
          +0.001*[#  12]+0.001*[#   2]
    |psi|^2 = 0.079
==== e(  28) =     4.91038 eV ==== 
     psi = 0.005*[#   6]+0.002*[#   5]+0.001*[#   9]+0.001*[#  10]
    |psi|^2 = 0.009
==== e(  29) =     4.99045 eV ==== 
     psi = 0.011*[#   7]+0.002*[#  11]
    |psi|^2 = 0.013
==== e(  30) =     5.20303 eV ==== 
     psi = 0.012*[#   6]+0.005*[#   8]+0.002*[#   5]+0.002*[#   9]+0.001*[#  10]
          
    |psi|^2 = 0.023
==== e(  31) =     5.34839 eV ==== 
     psi = 0.005*[#   7]
    |psi|^2 = 0.005
==== e(  32) =     5.49158 eV ==== 
     psi = 0.004*[#   6]+0.002*[#   8]
    |psi|^2 = 0.009
==== e(  33) =     5.77357 eV ==== 
     psi = 0.002*[#   8]
    |psi|^2 = 0.004

 k =   0.0000000000 -0.5000000000  0.0000000000
==== e(   1) =   -80.07156 eV ==== 
     psi = 0.993*[#   1]+0.005*[#  10]
    |psi|^2 = 1.000
==== e(   2) =   -47.08510 eV ==== 
     psi = 0.982*[#   2]+0.011*[#   6]+0.004*[#  10]+0.002*[#   9]
    |psi|^2 = 1.000
==== e(   3) =   -47.00710 eV ==== 
     psi = 0.989*[#   3]+0.010*[#   7]
    |psi|^2 = 1.000
==== e(   4) =   -47.00710 eV ==== 
     psi = 0.989*[#   4]+0.010*[#   8]
    |psi|^2 = 1.000
==== e(   5) =   -14.29265 eV ==== 
     psi = 0.824*[#   9]+0.089*[#   6]+0.079*[#   5]+0.004*[#  10]
    |psi|^2 = 0.997
==== e(   6) =    -5.75024 eV ==== 
     psi = 0.655*[#  10]+0.286*[#   5]+0.047*[#   9]+0.002*[#   1]+0.001*[#   2]
          
    |psi|^2 = 0.991
==== e(   7) =    -4.26065 eV ==== 
     psi = 0.856*[#  12]+0.134*[#   8]
    |psi|^2 = 0.990
==== e(   8) =    -4.23074 eV ==== 
     psi = 0.867*[#  11]+0.124*[#   7]
    |psi|^2 = 0.991
==== e(   9) =    -3.33581 eV ==== 
     psi = 0.449*[#   5]+0.317*[#   6]+0.208*[#  10]+0.001*[#   1]
    |psi|^2 = 0.976
==== e(  10) =    -0.76081 eV ==== 
     psi = 0.530*[#   8]+0.090*[#  12]+0.006*[#   4]
    |psi|^2 = 0.626
==== e(  11) =    -0.11248 eV ==== 
     psi = 0.701*[#   7]+0.099*[#  11]+0.008*[#   3]
    |psi|^2 = 0.809
==== e(  12) =     0.93116 eV ==== 
     psi = 0.217*[#   6]+0.097*[#   5]+0.046*[#   9]+0.040*[#  10]+0.006*[#   2]
          
    |psi|^2 = 0.408
==== e(  13) =     0.99856 eV ==== 
     psi = 0.009*[#   6]+0.003*[#  10]+0.002*[#   5]
    |psi|^2 = 0.014
==== e(  14) =     1.24106 eV ==== 
     psi = 0.121*[#   8]+0.016*[#  12]+0.001*[#   4]
    |psi|^2 = 0.138
==== e(  15) =     1.97014 eV ==== 
     psi = 0.003*[#  12]+0.001*[#   8]
    |psi|^2 = 0.004
==== e(  16) =     2.03339 eV ==== 
     psi = 0.030*[#   6]+0.013*[#   5]+0.009*[#   9]+0.008*[#  10]
    |psi|^2 = 0.061
==== e(  17) =     2.24253 eV ==== 
 
    |psi|^2 = 0.000
==== e(  18) =     2.54548 eV ==== 
     psi = 0.054*[#   8]+0.008*[#  12]
    |psi|^2 = 0.062
==== e(  19) =     3.26219 eV ==== 
     psi = 0.051*[#   6]+0.014*[#   5]+0.009*[#   9]+0.009*[#  10]+0.001*[#   2]
          
    |psi|^2 = 0.085
==== e(  20) =     3.27113 eV ==== 
     psi = 0.045*[#   7]+0.012*[#  11]
    |psi|^2 = 0.057
==== e(  21) =     3.50725 eV ==== 
     psi = 0.053*[#   8]+0.008*[#  12]
    |psi|^2 = 0.061
==== e(  22) =     3.66876 eV ==== 
     psi = 0.005*[#  10]
    |psi|^2 = 0.006
==== e(  23) =     4.11093 eV ==== 
 
    |psi|^2 = 0.000
==== e(  24) =     4.19305 eV ==== 
     psi = 0.021*[#   6]+0.005*[#   9]+0.005*[#  10]+0.004*[#   5]
    |psi|^2 = 0.034
==== e(  25) =     4.36503 eV ==== 
     psi = 0.003*[#  12]
    |psi|^2 = 0.004
==== e(  26) =     4.46281 eV ==== 
 
    |psi|^2 = 0.000
==== e(  27) =     4.70725 eV ==== 
     psi = 0.014*[#   7]+0.005*[#  11]
    |psi|^2 = 0.019
==== e(  28) =     4.85855 eV ==== 
     psi = 0.006*[#   8]
    |psi|^2 = 0.007
==== e(  29) =     5.02017 eV ==== 
     psi = 0.004*[#   8]+0.003*[#  12]
    |psi|^2 = 0.008
==== e(  30) =     5.25556 eV ==== 
     psi = 0.014*[#   6]+0.007*[#   5]+0.004*[#  10]+0.002*[#   9]
    |psi|^2 = 0.028
==== e(  31) =     5.49165 eV ==== 
     psi = 0.009*[#   6]+0.007*[#   5]+0.002*[#   9]
    |psi|^2 = 0.019
==== e(  32) =     5.84351 eV ==== 
     psi = 0.007*[#   7]+0.006*[#  11]
    |psi|^2 = 0.013
==== e(  33) =     5.84412 eV ==== 
 
    |psi|^2 = 0.000

 k =   0.0000000000 -0.5000000000  0.1750000000
==== e(   1) =   -80.07156 eV ==== 
     psi = 0.993*[#   1]+0.005*[#  10]
    |psi|^2 = 1.000
==== e(   2) =   -47.08511 eV ==== 
     psi = 0.982*[#   2]+0.011*[#   6]+0.004*[#  10]+0.002*[#   9]
    |psi|^2 = 1.000
==== e(   3) =   -47.00710 eV ==== 
     psi = 0.989*[#   3]+0.010*[#   7]
    |psi|^2 = 1.000
==== e(   4) =   -47.00710 eV ==== 
     psi = 0.989*[#   4]+0.010*[#   8]
    |psi|^2 = 1.000
==== e(   5) =   -14.29265 eV ==== 
     psi = 0.824*[#   9]+0.089*[#   6]+0.079*[#   5]+0.004*[#  10]
    |psi|^2 = 0.997
==== e(   6) =    -5.75095 eV ==== 
     psi = 0.654*[#  10]+0.286*[#   5]+0.046*[#   9]+0.002*[#   1]+0.001*[#   2]
          
    |psi|^2 = 0.991
==== e(   7) =    -4.26054 eV ==== 
     psi = 0.857*[#  12]+0.134*[#   8]
    |psi|^2 = 0.990
==== e(   8) =    -4.23069 eV ==== 
     psi = 0.868*[#  11]+0.124*[#   7]
    |psi|^2 = 0.991
==== e(   9) =    -3.33069 eV ==== 
     psi = 0.449*[#   5]+0.318*[#   6]+0.208*[#  10]+0.001*[#   1]
    |psi|^2 = 0.977
==== e(  10) =    -0.76408 eV ==== 
     psi = 0.531*[#   8]+0.089*[#  12]+0.006*[#   4]
    |psi|^2 = 0.627
==== e(  11) =    -0.11543 eV ==== 
     psi = 0.700*[#   7]+0.099*[#  11]+0.008*[#   3]
    |psi|^2 = 0.808
==== e(  12) =     0.73413 eV ==== 
     psi = 0.151*[#   6]+0.078*[#   5]+0.036*[#   9]+0.035*[#  10]+0.004*[#   2]
          
    |psi|^2 = 0.306
==== e(  13) =     1.10805 eV ==== 
     psi = 0.062*[#   6]+0.013*[#   5]+0.008*[#   9]+0.004*[#  10]+0.001*[#   2]
          
    |psi|^2 = 0.088
==== e(  14) =     1.25903 eV ==== 
     psi = 0.087*[#   8]+0.014*[#  12]+0.001*[#   4]
    |psi|^2 = 0.102
==== e(  15) =     1.87182 eV ==== 
     psi = 0.073*[#   8]+0.009*[#  12]
    |psi|^2 = 0.083
==== e(  16) =     2.25884 eV ==== 
 
    |psi|^2 = 0.000
==== e(  17) =     2.28536 eV ==== 
     psi = 0.037*[#   6]+0.021*[#   5]+0.011*[#  10]+0.010*[#   9]+0.001*[#   2]
          
    |psi|^2 = 0.080
==== e(  18) =     2.75061 eV ==== 
     psi = 0.018*[#   8]+0.004*[#  12]
    |psi|^2 = 0.023
==== e(  19) =     3.13306 eV ==== 
     psi = 0.049*[#   6]+0.015*[#   5]+0.010*[#   9]+0.009*[#  10]+0.001*[#   2]
          
    |psi|^2 = 0.085
==== e(  20) =     3.37312 eV ==== 
     psi = 0.050*[#   7]+0.013*[#  11]
    |psi|^2 = 0.064
==== e(  21) =     3.54923 eV ==== 
     psi = 0.003*[#   6]+0.001*[#  10]
    |psi|^2 = 0.005
==== e(  22) =     3.56216 eV ==== 
     psi = 0.040*[#   8]+0.006*[#  12]
    |psi|^2 = 0.047
==== e(  23) =     3.81005 eV ==== 
 
    |psi|^2 = 0.000
==== e(  24) =     4.23336 eV ==== 
     psi = 0.006*[#   8]+0.001*[#  12]
    |psi|^2 = 0.007
==== e(  25) =     4.35397 eV ==== 
     psi = 0.006*[#   8]+0.002*[#  12]
    |psi|^2 = 0.009
==== e(  26) =     4.44644 eV ==== 
     psi = 0.002*[#   5]+0.002*[#  10]+0.002*[#   6]
    |psi|^2 = 0.007
==== e(  27) =     4.46779 eV ==== 
     psi = 0.014*[#   7]+0.005*[#  11]
    |psi|^2 = 0.019
==== e(  28) =     4.95459 eV ==== 
     psi = 0.054*[#   6]+0.016*[#   5]+0.013*[#   9]+0.012*[#  10]+0.001*[#   2]
          
    |psi|^2 = 0.098
==== e(  29) =     4.97534 eV ==== 
 
    |psi|^2 = 0.000
==== e(  30) =     5.33500 eV ==== 
     psi = 0.005*[#   8]+0.002*[#  12]
    |psi|^2 = 0.007
==== e(  31) =     5.53409 eV ==== 
     psi = 0.010*[#   6]+0.004*[#  10]+0.002*[#   9]+0.002*[#   5]
    |psi|^2 = 0.019
==== e(  32) =     5.75417 eV ==== 
     psi = 0.003*[#   7]+0.002*[#  11]
    |psi|^2 = 0.006
==== e(  33) =     5.97230 eV ==== 
     psi = 0.009*[#   8]+0.005*[#  12]
    |psi|^2 = 0.014

 k =   0.0000000000 -0.5000000000 -0.3500000000
==== e(   1) =   -80.07156 eV ==== 
     psi = 0.993*[#   1]+0.005*[#  10]
    |psi|^2 = 1.000
==== e(   2) =   -47.08511 eV ==== 
     psi = 0.982*[#   2]+0.011*[#   6]+0.004*[#  10]+0.002*[#   9]
    |psi|^2 = 1.000
==== e(   3) =   -47.00710 eV ==== 
     psi = 0.989*[#   4]+0.010*[#   8]
    |psi|^2 = 1.000
==== e(   4) =   -47.00710 eV ==== 
     psi = 0.989*[#   3]+0.010*[#   7]
    |psi|^2 = 1.000
==== e(   5) =   -14.29265 eV ==== 
     psi = 0.824*[#   9]+0.089*[#   6]+0.079*[#   5]+0.004*[#  10]
    |psi|^2 = 0.997
==== e(   6) =    -5.75166 eV ==== 
     psi = 0.654*[#  10]+0.286*[#   5]+0.046*[#   9]+0.002*[#   1]+0.001*[#   2]
          
    |psi|^2 = 0.991
==== e(   7) =    -4.26042 eV ==== 
     psi = 0.857*[#  12]+0.133*[#   8]
    |psi|^2 = 0.990
==== e(   8) =    -4.23064 eV ==== 
     psi = 0.868*[#  11]+0.124*[#   7]
    |psi|^2 = 0.991
==== e(   9) =    -3.32554 eV ==== 
     psi = 0.449*[#   5]+0.319*[#   6]+0.209*[#  10]+0.001*[#   1]
    |psi|^2 = 0.978
==== e(  10) =    -0.76734 eV ==== 
     psi = 0.532*[#   8]+0.089*[#  12]+0.006*[#   4]
    |psi|^2 = 0.627
==== e(  11) =    -0.11836 eV ==== 
     psi = 0.699*[#   7]+0.099*[#  11]+0.008*[#   3]
    |psi|^2 = 0.807
==== e(  12) =     0.62618 eV ==== 
     psi = 0.150*[#   6]+0.081*[#   5]+0.038*[#   9]+0.037*[#  10]+0.004*[#   2]
          
    |psi|^2 = 0.310
==== e(  13) =     1.14460 eV ==== 
     psi = 0.055*[#   6]+0.006*[#   9]+0.006*[#   5]
    |psi|^2 = 0.068
==== e(  14) =     1.28028 eV ==== 
     psi = 0.046*[#   8]+0.011*[#  12]
    |psi|^2 = 0.058
==== e(  15) =     1.79238 eV ==== 
     psi = 0.133*[#   8]+0.014*[#  12]+0.002*[#   4]
    |psi|^2 = 0.149
==== e(  16) =     2.27625 eV ==== 
 
    |psi|^2 = 0.000
==== e(  17) =     2.59150 eV ==== 
     psi = 0.038*[#   6]+0.026*[#   5]+0.017*[#  10]+0.009*[#   9]+0.001*[#   2]
          
    |psi|^2 = 0.091
==== e(  18) =     3.01988 eV ==== 
     psi = 0.010*[#   8]+0.005*[#  12]
    |psi|^2 = 0.015
==== e(  19) =     3.02673 eV ==== 
     psi = 0.039*[#   6]+0.014*[#   5]+0.007*[#   9]+0.002*[#  10]
    |psi|^2 = 0.063
==== e(  20) =     3.42245 eV ==== 
     psi = 0.017*[#   6]+0.003*[#   9]+0.001*[#   5]+0.001*[#  10]
    |psi|^2 = 0.023
==== e(  21) =     3.52103 eV ==== 
     psi = 0.062*[#   7]+0.016*[#  11]
    |psi|^2 = 0.079
==== e(  22) =     3.54479 eV ==== 
 
    |psi|^2 = 0.001
==== e(  23) =     3.65410 eV ==== 
 
    |psi|^2 = 0.000
==== e(  24) =     4.02388 eV ==== 
 
    |psi|^2 = 0.000
==== e(  25) =     4.13890 eV ==== 
     psi = 0.041*[#   8]+0.006*[#  12]
    |psi|^2 = 0.048
==== e(  26) =     4.20585 eV ==== 
     psi = 0.005*[#   7]+0.003*[#  11]
    |psi|^2 = 0.008
==== e(  27) =     4.28297 eV ==== 
     psi = 0.016*[#   6]+0.008*[#   5]+0.007*[#  10]+0.006*[#   9]
    |psi|^2 = 0.038
==== e(  28) =     5.38545 eV ==== 
     psi = 0.033*[#   6]+0.013*[#  10]+0.008*[#   9]+0.007*[#   5]
    |psi|^2 = 0.062
==== e(  29) =     5.44246 eV ==== 
     psi = 0.009*[#   8]+0.006*[#  12]
    |psi|^2 = 0.015
==== e(  30) =     5.59205 eV ==== 
     psi = 0.037*[#   6]+0.010*[#   5]+0.008*[#   9]+0.007*[#  10]
    |psi|^2 = 0.063
==== e(  31) =     5.71680 eV ==== 
 
    |psi|^2 = 0.000
==== e(  32) =     5.72069 eV ==== 
     psi = 0.001*[#  11]
    |psi|^2 = 0.002
==== e(  33) =     5.73821 eV ==== 
     psi = 0.019*[#   6]+0.004*[#   9]+0.002*[#  10]+0.002*[#   5]
    |psi|^2 = 0.027

 k =   0.0000000000 -0.5000000000 -0.1750000000
==== e(   1) =   -80.07156 eV ==== 
     psi = 0.993*[#   1]+0.005*[#  10]
    |psi|^2 = 1.000
==== e(   2) =   -47.08511 eV ==== 
     psi = 0.982*[#   2]+0.011*[#   6]+0.004*[#  10]+0.002*[#   9]
    |psi|^2 = 1.000
==== e(   3) =   -47.00710 eV ==== 
     psi = 0.989*[#   3]+0.010*[#   7]
    |psi|^2 = 1.000
==== e(   4) =   -47.00710 eV ==== 
     psi = 0.989*[#   4]+0.010*[#   8]
    |psi|^2 = 1.000
==== e(   5) =   -14.29265 eV ==== 
     psi = 0.824*[#   9]+0.089*[#   6]+0.079*[#   5]+0.004*[#  10]
    |psi|^2 = 0.997
==== e(   6) =    -5.75095 eV ==== 
     psi = 0.654*[#  10]+0.286*[#   5]+0.046*[#   9]+0.002*[#   1]+0.001*[#   2]
          
    |psi|^2 = 0.991
==== e(   7) =    -4.26054 eV ==== 
     psi = 0.857*[#  12]+0.134*[#   8]
    |psi|^2 = 0.990
==== e(   8) =    -4.23069 eV ==== 
     psi = 0.868*[#  11]+0.124*[#   7]
    |psi|^2 = 0.991
==== e(   9) =    -3.33069 eV ==== 
     psi = 0.449*[#   5]+0.318*[#   6]+0.208*[#  10]+0.001*[#   1]
    |psi|^2 = 0.977
==== e(  10) =    -0.76408 eV ==== 
     psi = 0.531*[#   8]+0.089*[#  12]+0.006*[#   4]
    |psi|^2 = 0.627
==== e(  11) =    -0.11543 eV ==== 
     psi = 0.700*[#   7]+0.099*[#  11]+0.008*[#   3]
    |psi|^2 = 0.808
==== e(  12) =     0.73413 eV ==== 
     psi = 0.151*[#   6]+0.078*[#   5]+0.036*[#   9]+0.035*[#  10]+0.004*[#   2]
          
    |psi|^2 = 0.306
==== e(  13) =     1.10805 eV ==== 
     psi = 0.062*[#   6]+0.013*[#   5]+0.008*[#   9]+0.004*[#  10]+0.001*[#   2]
          
    |psi|^2 = 0.088
==== e(  14) =     1.25903 eV ==== 
     psi = 0.087*[#   8]+0.014*[#  12]+0.001*[#   4]
    |psi|^2 = 0.102
==== e(  15) =     1.87182 eV ==== 
     psi = 0.073*[#   8]+0.009*[#  12]
    |psi|^2 = 0.083
==== e(  16) =     2.25884 eV ==== 
 
    |psi|^2 = 0.000
==== e(  17) =     2.28536 eV ==== 
     psi = 0.037*[#   6]+0.021*[#   5]+0.011*[#  10]+0.010*[#   9]+0.001*[#   2]
          
    |psi|^2 = 0.080
==== e(  18) =     2.75061 eV ==== 
     psi = 0.018*[#   8]+0.004*[#  12]
    |psi|^2 = 0.023
==== e(  19) =     3.13306 eV ==== 
     psi = 0.049*[#   6]+0.015*[#   5]+0.010*[#   9]+0.009*[#  10]+0.001*[#   2]
          
    |psi|^2 = 0.085
==== e(  20) =     3.37312 eV ==== 
     psi = 0.050*[#   7]+0.013*[#  11]
    |psi|^2 = 0.064
==== e(  21) =     3.54923 eV ==== 
     psi = 0.003*[#   6]+0.001*[#  10]
    |psi|^2 = 0.005
==== e(  22) =     3.56216 eV ==== 
     psi = 0.040*[#   8]+0.006*[#  12]
    |psi|^2 = 0.047
==== e(  23) =     3.81005 eV ==== 
 
    |psi|^2 = 0.000
==== e(  24) =     4.23336 eV ==== 
     psi = 0.006*[#   8]+0.001*[#  12]
    |psi|^2 = 0.007
==== e(  25) =     4.35397 eV ==== 
     psi = 0.006*[#   8]+0.002*[#  12]
    |psi|^2 = 0.009
==== e(  26) =     4.44644 eV ==== 
     psi = 0.002*[#   5]+0.002*[#  10]+0.002*[#   6]
    |psi|^2 = 0.007
==== e(  27) =     4.46779 eV ==== 
     psi = 0.014*[#   7]+0.005*[#  11]
    |psi|^2 = 0.019
==== e(  28) =     4.95459 eV ==== 
     psi = 0.054*[#   6]+0.016*[#   5]+0.013*[#   9]+0.012*[#  10]+0.001*[#   2]
          
    |psi|^2 = 0.098
==== e(  29) =     4.97534 eV ==== 
 
    |psi|^2 = 0.000
==== e(  30) =     5.33500 eV ==== 
     psi = 0.005*[#   8]+0.002*[#  12]
    |psi|^2 = 0.007
==== e(  31) =     5.53409 eV ==== 
     psi = 0.010*[#   6]+0.004*[#  10]+0.002*[#   9]+0.002*[#   5]
    |psi|^2 = 0.019
==== e(  32) =     5.75417 eV ==== 
     psi = 0.003*[#   7]+0.002*[#  11]
    |psi|^2 = 0.006
==== e(  33) =     5.97230 eV ==== 
     psi = 0.009*[#   8]+0.005*[#  12]
    |psi|^2 = 0.014

 k =   0.0000000000 -0.2500000000  0.0000000000
==== e(   1) =   -80.07156 eV ==== 
     psi = 0.993*[#   1]+0.005*[#  10]
    |psi|^2 = 1.000
==== e(   2) =   -47.08511 eV ==== 
     psi = 0.982*[#   2]+0.011*[#   6]+0.004*[#  10]+0.002*[#   9]
    |psi|^2 = 1.000
==== e(   3) =   -47.00710 eV ==== 
     psi = 0.989*[#   3]+0.010*[#   7]
    |psi|^2 = 1.000
==== e(   4) =   -47.00710 eV ==== 
     psi = 0.989*[#   4]+0.010*[#   8]
    |psi|^2 = 1.000
==== e(   5) =   -14.29272 eV ==== 
     psi = 0.825*[#   9]+0.089*[#   6]+0.079*[#   5]+0.004*[#  10]
    |psi|^2 = 0.997
==== e(   6) =    -5.75330 eV ==== 
     psi = 0.652*[#  10]+0.288*[#   5]+0.047*[#   9]+0.002*[#   1]+0.001*[#   2]
          
    |psi|^2 = 0.991
==== e(   7) =    -4.24706 eV ==== 
     psi = 0.861*[#  12]+0.129*[#   8]
    |psi|^2 = 0.991
==== e(   8) =    -4.23193 eV ==== 
     psi = 0.867*[#  11]+0.124*[#   7]
    |psi|^2 = 0.991
==== e(   9) =    -3.36008 eV ==== 
     psi = 0.448*[#   5]+0.312*[#   6]+0.210*[#  10]+0.001*[#   1]
    |psi|^2 = 0.973
==== e(  10) =    -0.54136 eV ==== 
     psi = 0.546*[#   8]+0.087*[#  12]+0.007*[#   4]+0.006*[#   6]
    |psi|^2 = 0.645
==== e(  11) =    -0.14587 eV ==== 
     psi = 0.691*[#   7]+0.099*[#  11]+0.008*[#   3]
    |psi|^2 = 0.798
==== e(  12) =     0.61119 eV ==== 
     psi = 0.067*[#   8]+0.053*[#   6]+0.008*[#  12]+0.006*[#   9]+0.002*[#   5]
          
    |psi|^2 = 0.138
==== e(  13) =     0.71973 eV ==== 
     psi = 0.158*[#   6]+0.089*[#   5]+0.038*[#  10]+0.037*[#   9]+0.005*[#   2]
          
    |psi|^2 = 0.326
==== e(  14) =     1.58106 eV ==== 
     psi = 0.016*[#   8]+0.003*[#   5]+0.002*[#   6]+0.002*[#  10]+0.002*[#   9]
          +0.001*[#  12]
    |psi|^2 = 0.027
==== e(  15) =     1.78187 eV ==== 
     psi = 0.080*[#   8]+0.011*[#  12]+0.005*[#   6]+0.002*[#   9]+0.002*[#   5]
          
    |psi|^2 = 0.102
==== e(  16) =     2.28914 eV ==== 
     psi = 0.003*[#  10]+0.002*[#   5]
    |psi|^2 = 0.008
==== e(  17) =     2.50564 eV ==== 
     psi = 0.013*[#   7]+0.002*[#  11]
    |psi|^2 = 0.015
==== e(  18) =     2.62601 eV ==== 
     psi = 0.056*[#   6]+0.017*[#   5]+0.011*[#   9]+0.009*[#  10]+0.003*[#   8]
          +0.001*[#   2]+0.001*[#  12]
    |psi|^2 = 0.100
==== e(  19) =     3.12272 eV ==== 
     psi = 0.035*[#   7]+0.009*[#  11]
    |psi|^2 = 0.045
==== e(  20) =     3.20838 eV ==== 
     psi = 0.012*[#   8]+0.002*[#  12]
    |psi|^2 = 0.015
==== e(  21) =     3.29692 eV ==== 
     psi = 0.013*[#   6]+0.009*[#  10]+0.006*[#   5]+0.006*[#   8]+0.004*[#   9]
          +0.002*[#  12]
    |psi|^2 = 0.041
==== e(  22) =     3.87215 eV ==== 
     psi = 0.022*[#   6]+0.005*[#   9]+0.005*[#  10]+0.005*[#   5]+0.004*[#   8]
          
    |psi|^2 = 0.042
==== e(  23) =     4.15098 eV ==== 
     psi = 0.007*[#   7]+0.003*[#  11]
    |psi|^2 = 0.010
==== e(  24) =     4.23476 eV ==== 
     psi = 0.025*[#   8]+0.008*[#  12]
    |psi|^2 = 0.036
==== e(  25) =     4.51395 eV ==== 
     psi = 0.002*[#   8]
    |psi|^2 = 0.004
==== e(  26) =     4.53510 eV ==== 
     psi = 0.002*[#   7]+0.002*[#  11]
    |psi|^2 = 0.004
==== e(  27) =     4.76638 eV ==== 
     psi = 0.028*[#   6]+0.011*[#   5]+0.004*[#   9]+0.004*[#  10]
    |psi|^2 = 0.048
==== e(  28) =     4.96088 eV ==== 
     psi = 0.011*[#   7]+0.002*[#  11]
    |psi|^2 = 0.013
==== e(  29) =     5.17926 eV ==== 
 
    |psi|^2 = 0.002
==== e(  30) =     5.28076 eV ==== 
     psi = 0.018*[#   7]+0.003*[#  11]
    |psi|^2 = 0.021
==== e(  31) =     5.30862 eV ==== 
     psi = 0.002*[#   5]
    |psi|^2 = 0.005
==== e(  32) =     5.59655 eV ==== 
     psi = 0.014*[#   6]+0.004*[#   5]+0.003*[#   9]+0.001*[#  10]
    |psi|^2 = 0.023
==== e(  33) =     5.68602 eV ==== 
     psi = 0.010*[#   8]
    |psi|^2 = 0.011

 k =   0.0000000000 -0.2500000000  0.1750000000
==== e(   1) =   -80.07156 eV ==== 
     psi = 0.993*[#   1]+0.005*[#  10]
    |psi|^2 = 1.000
==== e(   2) =   -47.08511 eV ==== 
     psi = 0.982*[#   2]+0.011*[#   6]+0.004*[#  10]+0.002*[#   9]
    |psi|^2 = 1.000
==== e(   3) =   -47.00710 eV ==== 
     psi = 0.989*[#   3]+0.010*[#   7]
    |psi|^2 = 1.000
==== e(   4) =   -47.00710 eV ==== 
     psi = 0.989*[#   4]+0.010*[#   8]
    |psi|^2 = 1.000
==== e(   5) =   -14.29272 eV ==== 
     psi = 0.825*[#   9]+0.089*[#   6]+0.079*[#   5]+0.004*[#  10]
    |psi|^2 = 0.997
==== e(   6) =    -5.75404 eV ==== 
     psi = 0.652*[#  10]+0.288*[#   5]+0.046*[#   9]+0.002*[#   1]+0.001*[#   2]
          
    |psi|^2 = 0.991
==== e(   7) =    -4.24697 eV ==== 
     psi = 0.861*[#  12]+0.129*[#   8]
    |psi|^2 = 0.991
==== e(   8) =    -4.23188 eV ==== 
     psi = 0.867*[#  11]+0.124*[#   7]
    |psi|^2 = 0.991
==== e(   9) =    -3.35463 eV ==== 
     psi = 0.448*[#   5]+0.313*[#   6]+0.210*[#  10]+0.001*[#   1]
    |psi|^2 = 0.974
==== e(  10) =    -0.54357 eV ==== 
     psi = 0.548*[#   8]+0.086*[#  12]+0.007*[#   4]+0.005*[#   6]
    |psi|^2 = 0.646
==== e(  11) =    -0.14894 eV ==== 
     psi = 0.690*[#   7]+0.098*[#  11]+0.008*[#   3]
    |psi|^2 = 0.797
==== e(  12) =     0.44728 eV ==== 
     psi = 0.111*[#   6]+0.056*[#   5]+0.026*[#   9]+0.024*[#  10]+0.014*[#   8]
          +0.003*[#   2]+0.002*[#  12]
    |psi|^2 = 0.238
==== e(  13) =     0.79574 eV ==== 
     psi = 0.084*[#   6]+0.054*[#   8]+0.023*[#   5]+0.013*[#   9]+0.008*[#  10]
          +0.007*[#  12]+0.002*[#   2]
    |psi|^2 = 0.192
==== e(  14) =     1.66570 eV ==== 
     psi = 0.045*[#   8]+0.008*[#   6]+0.006*[#   5]+0.005*[#  12]+0.004*[#  10]
          +0.002*[#   9]
    |psi|^2 = 0.071
==== e(  15) =     1.95205 eV ==== 
     psi = 0.052*[#   8]+0.010*[#   6]+0.009*[#   5]+0.008*[#  12]+0.006*[#  10]
          +0.003*[#   9]
    |psi|^2 = 0.089
==== e(  16) =     2.13588 eV ==== 
     psi = 0.022*[#   6]+0.009*[#   5]+0.005*[#   9]+0.005*[#  10]
    |psi|^2 = 0.042
==== e(  17) =     2.53288 eV ==== 
     psi = 0.012*[#   7]+0.002*[#  11]
    |psi|^2 = 0.013
==== e(  18) =     2.81263 eV ==== 
     psi = 0.035*[#   6]+0.008*[#   5]+0.006*[#   9]+0.005*[#   8]+0.003*[#  10]
          +0.001*[#  12]
    |psi|^2 = 0.060
==== e(  19) =     3.05289 eV ==== 
     psi = 0.013*[#   6]+0.008*[#  10]+0.007*[#   5]+0.004*[#   9]+0.002*[#   8]
          
    |psi|^2 = 0.035
==== e(  20) =     3.16667 eV ==== 
     psi = 0.039*[#   7]+0.010*[#  11]
    |psi|^2 = 0.050
==== e(  21) =     3.34961 eV ==== 
     psi = 0.010*[#   8]+0.003*[#  12]
    |psi|^2 = 0.015
==== e(  22) =     3.81898 eV ==== 
     psi = 0.006*[#   8]+0.003*[#   5]+0.003*[#   6]+0.002*[#  12]+0.001*[#  10]
          
    |psi|^2 = 0.015
==== e(  23) =     3.99752 eV ==== 
     psi = 0.014*[#   7]+0.004*[#  11]
    |psi|^2 = 0.018
==== e(  24) =     4.28007 eV ==== 
     psi = 0.017*[#   6]+0.013*[#   8]+0.006*[#   5]+0.004*[#   9]+0.004*[#  12]
          +0.003*[#  10]
    |psi|^2 = 0.046
==== e(  25) =     4.46054 eV ==== 
     psi = 0.005*[#   8]+0.005*[#   6]+0.002*[#  10]+0.002*[#  12]+0.002*[#   5]
          +0.001*[#   9]
    |psi|^2 = 0.018
==== e(  26) =     4.46953 eV ==== 
     psi = 0.002*[#   7]+0.001*[#  11]
    |psi|^2 = 0.004
==== e(  27) =     4.72842 eV ==== 
     psi = 0.041*[#   6]+0.011*[#   5]+0.010*[#   9]+0.009*[#  10]+0.006*[#   8]
          +0.001*[#  12]+0.001*[#   2]
    |psi|^2 = 0.079
==== e(  28) =     4.91038 eV ==== 
     psi = 0.005*[#   6]+0.002*[#   5]+0.001*[#   9]+0.001*[#  10]
    |psi|^2 = 0.009
==== e(  29) =     4.99045 eV ==== 
     psi = 0.011*[#   7]+0.002*[#  11]
    |psi|^2 = 0.013
==== e(  30) =     5.20303 eV ==== 
     psi = 0.012*[#   6]+0.005*[#   8]+0.002*[#   5]+0.002*[#   9]+0.001*[#  10]
          
    |psi|^2 = 0.023
==== e(  31) =     5.34839 eV ==== 
     psi = 0.005*[#   7]
    |psi|^2 = 0.005
==== e(  32) =     5.49158 eV ==== 
     psi = 0.004*[#   6]+0.002*[#   8]
    |psi|^2 = 0.009
==== e(  33) =     5.77357 eV ==== 
     psi = 0.002*[#   8]
    |psi|^2 = 0.004

 k =   0.0000000000 -0.2500000000 -0.3500000000
==== e(   1) =   -80.07156 eV ==== 
     psi = 0.993*[#   1]+0.005*[#  10]
    |psi|^2 = 1.000
==== e(   2) =   -47.08511 eV ==== 
     psi = 0.982*[#   2]+0.011*[#   6]+0.004*[#  10]+0.002*[#   9]
    |psi|^2 = 1.000
==== e(   3) =   -47.00710 eV ==== 
     psi = 0.989*[#   3]+0.010*[#   7]
    |psi|^2 = 1.000
==== e(   4) =   -47.00710 eV ==== 
     psi = 0.989*[#   4]+0.010*[#   8]
    |psi|^2 = 1.000
==== e(   5) =   -14.29272 eV ==== 
     psi = 0.825*[#   9]+0.089*[#   6]+0.079*[#   5]+0.004*[#  10]
    |psi|^2 = 0.997
==== e(   6) =    -5.75478 eV ==== 
     psi = 0.652*[#  10]+0.288*[#   5]+0.046*[#   9]+0.002*[#   1]+0.001*[#   2]
          
    |psi|^2 = 0.991
==== e(   7) =    -4.24688 eV ==== 
     psi = 0.861*[#  12]+0.129*[#   8]
    |psi|^2 = 0.991
==== e(   8) =    -4.23183 eV ==== 
     psi = 0.867*[#  11]+0.124*[#   7]
    |psi|^2 = 0.991
==== e(   9) =    -3.34914 eV ==== 
     psi = 0.448*[#   5]+0.314*[#   6]+0.211*[#  10]+0.001*[#   1]
    |psi|^2 = 0.975
==== e(  10) =    -0.54577 eV ==== 
     psi = 0.551*[#   8]+0.086*[#  12]+0.007*[#   4]+0.004*[#   6]
    |psi|^2 = 0.648
==== e(  11) =    -0.15199 eV ==== 
     psi = 0.689*[#   7]+0.098*[#  11]+0.008*[#   3]
    |psi|^2 = 0.796
==== e(  12) =     0.34641 eV ==== 
     psi = 0.120*[#   6]+0.066*[#   5]+0.030*[#   9]+0.029*[#  10]+0.003*[#   2]
          +0.003*[#   8]
    |psi|^2 = 0.252
==== e(  13) =     0.82675 eV ==== 
     psi = 0.067*[#   6]+0.064*[#   8]+0.008*[#   9]+0.008*[#  12]+0.007*[#   5]
          +0.001*[#   2]
    |psi|^2 = 0.156
==== e(  14) =     1.80538 eV ==== 
     psi = 0.083*[#   8]+0.013*[#  12]+0.012*[#   6]+0.008*[#   5]+0.005*[#  10]
          +0.003*[#   9]+0.001*[#   4]
    |psi|^2 = 0.125
==== e(  15) =     1.82389 eV ==== 
     psi = 0.013*[#   6]+0.010*[#   8]+0.009*[#   5]+0.006*[#  10]+0.003*[#   9]
          
    |psi|^2 = 0.041
==== e(  16) =     2.38228 eV ==== 
     psi = 0.030*[#   6]+0.019*[#   5]+0.010*[#  10]+0.009*[#   8]+0.006*[#   9]
          +0.002*[#  12]
    |psi|^2 = 0.077
==== e(  17) =     2.56226 eV ==== 
     psi = 0.010*[#   7]+0.001*[#  11]
    |psi|^2 = 0.011
==== e(  18) =     2.76623 eV ==== 
     psi = 0.016*[#   6]+0.005*[#   8]+0.005*[#   5]+0.003*[#   9]
    |psi|^2 = 0.031
==== e(  19) =     3.08473 eV ==== 
     psi = 0.004*[#   6]+0.002*[#   8]
    |psi|^2 = 0.006
==== e(  20) =     3.21028 eV ==== 
     psi = 0.043*[#   7]+0.010*[#  11]
    |psi|^2 = 0.054
==== e(  21) =     3.41501 eV ==== 
     psi = 0.024*[#   6]+0.011*[#   5]+0.007*[#   9]+0.006*[#  10]
    |psi|^2 = 0.049
==== e(  22) =     3.50807 eV ==== 
     psi = 0.014*[#   8]+0.006*[#  12]
    |psi|^2 = 0.021
==== e(  23) =     3.91774 eV ==== 
     psi = 0.023*[#   7]+0.007*[#  11]
    |psi|^2 = 0.030
==== e(  24) =     4.28951 eV ==== 
     psi = 0.013*[#   6]+0.005*[#   5]+0.003*[#   9]+0.002*[#  10]
    |psi|^2 = 0.024
==== e(  25) =     4.34167 eV ==== 
 
    |psi|^2 = 0.000
==== e(  26) =     4.38143 eV ==== 
     psi = 0.010*[#   6]+0.007*[#   8]+0.005*[#  10]+0.003*[#   9]+0.003*[#   5]
          +0.002*[#  12]
    |psi|^2 = 0.030
==== e(  27) =     4.69753 eV ==== 
     psi = 0.020*[#   6]+0.006*[#   5]+0.005*[#  10]+0.005*[#   9]+0.002*[#   8]
          
    |psi|^2 = 0.039
==== e(  28) =     4.86866 eV ==== 
     psi = 0.001*[#   7]
    |psi|^2 = 0.002
==== e(  29) =     5.14180 eV ==== 
     psi = 0.037*[#   6]+0.009*[#   5]+0.007*[#   9]+0.006*[#  10]
    |psi|^2 = 0.060
==== e(  30) =     5.17528 eV ==== 
     psi = 0.022*[#   8]+0.008*[#   6]+0.004*[#  12]+0.002*[#   9]
    |psi|^2 = 0.038
==== e(  31) =     5.54447 eV ==== 
     psi = 0.010*[#   6]+0.004*[#   8]+0.002*[#   9]+0.002*[#   5]+0.001*[#  10]
          
    |psi|^2 = 0.021
==== e(  32) =     5.69087 eV ==== 
 
    |psi|^2 = 0.002
==== e(  33) =     5.91299 eV ==== 
     psi = 0.005*[#   7]+0.001*[#  11]
    |psi|^2 = 0.006

 k =   0.0000000000 -0.2500000000 -0.1750000000
==== e(   1) =   -80.07156 eV ==== 
     psi = 0.993*[#   1]+0.005*[#  10]
    |psi|^2 = 1.000
==== e(   2) =   -47.08511 eV ==== 
     psi = 0.982*[#   2]+0.011*[#   6]+0.004*[#  10]+0.002*[#   9]
    |psi|^2 = 1.000
==== e(   3) =   -47.00710 eV ==== 
     psi = 0.989*[#   3]+0.010*[#   7]
    |psi|^2 = 1.000
==== e(   4) =   -47.00710 eV ==== 
     psi = 0.989*[#   4]+0.010*[#   8]
    |psi|^2 = 1.000
==== e(   5) =   -14.29272 eV ==== 
     psi = 0.825*[#   9]+0.089*[#   6]+0.079*[#   5]+0.004*[#  10]
    |psi|^2 = 0.997
==== e(   6) =    -5.75404 eV ==== 
     psi = 0.652*[#  10]+0.288*[#   5]+0.046*[#   9]+0.002*[#   1]+0.001*[#   2]
          
    |psi|^2 = 0.991
==== e(   7) =    -4.24697 eV ==== 
     psi = 0.861*[#  12]+0.129*[#   8]
    |psi|^2 = 0.991
==== e(   8) =    -4.23188 eV ==== 
     psi = 0.867*[#  11]+0.124*[#   7]
    |psi|^2 = 0.991
==== e(   9) =    -3.35463 eV ==== 
     psi = 0.448*[#   5]+0.313*[#   6]+0.210*[#  10]+0.001*[#   1]
    |psi|^2 = 0.974
==== e(  10) =    -0.54357 eV ==== 
     psi = 0.548*[#   8]+0.086*[#  12]+0.007*[#   4]+0.005*[#   6]
    |psi|^2 = 0.646
==== e(  11) =    -0.14894 eV ==== 
     psi = 0.690*[#   7]+0.098*[#  11]+0.008*[#   3]
    |psi|^2 = 0.797
==== e(  12) =     0.44728 eV ==== 
     psi = 0.111*[#   6]+0.056*[#   5]+0.026*[#   9]+0.024*[#  10]+0.014*[#   8]
          +0.003*[#   2]+0.002*[#  12]
    |psi|^2 = 0.238
==== e(  13) =     0.79574 eV ==== 
     psi = 0.084*[#   6]+0.054*[#   8]+0.023*[#   5]+0.013*[#   9]+0.008*[#  10]
          +0.007*[#  12]+0.002*[#   2]
    |psi|^2 = 0.192
==== e(  14) =     1.66570 eV ==== 
     psi = 0.045*[#   8]+0.008*[#   6]+0.006*[#   5]+0.005*[#  12]+0.004*[#  10]
          +0.002*[#   9]
    |psi|^2 = 0.071
==== e(  15) =     1.95205 eV ==== 
     psi = 0.052*[#   8]+0.010*[#   6]+0.009*[#   5]+0.008*[#  12]+0.006*[#  10]
          +0.003*[#   9]
    |psi|^2 = 0.089
==== e(  16) =     2.13588 eV ==== 
     psi = 0.022*[#   6]+0.009*[#   5]+0.005*[#   9]+0.005*[#  10]
    |psi|^2 = 0.042
==== e(  17) =     2.53288 eV ==== 
     psi = 0.012*[#   7]+0.002*[#  11]
    |psi|^2 = 0.013
==== e(  18) =     2.81263 eV ==== 
     psi = 0.035*[#   6]+0.008*[#   5]+0.006*[#   9]+0.005*[#   8]+0.003*[#  10]
          +0.001*[#  12]
    |psi|^2 = 0.060
==== e(  19) =     3.05289 eV ==== 
     psi = 0.013*[#   6]+0.008*[#  10]+0.007*[#   5]+0.004*[#   9]+0.002*[#   8]
          
    |psi|^2 = 0.035
==== e(  20) =     3.16667 eV ==== 
     psi = 0.039*[#   7]+0.010*[#  11]
    |psi|^2 = 0.050
==== e(  21) =     3.34961 eV ==== 
     psi = 0.010*[#   8]+0.003*[#  12]
    |psi|^2 = 0.015
==== e(  22) =     3.81898 eV ==== 
     psi = 0.006*[#   8]+0.003*[#   5]+0.003*[#   6]+0.002*[#  12]+0.001*[#  10]
          
    |psi|^2 = 0.015
==== e(  23) =     3.99752 eV ==== 
     psi = 0.014*[#   7]+0.004*[#  11]
    |psi|^2 = 0.018
==== e(  24) =     4.28007 eV ==== 
     psi = 0.017*[#   6]+0.013*[#   8]+0.006*[#   5]+0.004*[#   9]+0.004*[#  12]
          +0.003*[#  10]
    |psi|^2 = 0.046
==== e(  25) =     4.46054 eV ==== 
     psi = 0.005*[#   8]+0.005*[#   6]+0.002*[#  10]+0.002*[#  12]+0.002*[#   5]
          +0.001*[#   9]
    |psi|^2 = 0.018
==== e(  26) =     4.46953 eV ==== 
     psi = 0.002*[#   7]+0.001*[#  11]
    |psi|^2 = 0.004
==== e(  27) =     4.72842 eV ==== 
     psi = 0.041*[#   6]+0.011*[#   5]+0.010*[#   9]+0.009*[#  10]+0.006*[#   8]
          +0.001*[#  12]+0.001*[#   2]
    |psi|^2 = 0.079
==== e(  28) =     4.91038 eV ==== 
     psi = 0.005*[#   6]+0.002*[#   5]+0.001*[#   9]+0.001*[#  10]
    |psi|^2 = 0.009
==== e(  29) =     4.99045 eV ==== 
     psi = 0.011*[#   7]+0.002*[#  11]
    |psi|^2 = 0.013
==== e(  30) =     5.20303 eV ==== 
     psi = 0.012*[#   6]+0.005*[#   8]+0.002*[#   5]+0.002*[#   9]+0.001*[#  10]
          
    |psi|^2 = 0.023
==== e(  31) =     5.34839 eV ==== 
     psi = 0.005*[#   7]
    |psi|^2 = 0.005
==== e(  32) =     5.49158 eV ==== 
     psi = 0.004*[#   6]+0.002*[#   8]
    |psi|^2 = 0.009
==== e(  33) =     5.77357 eV ==== 
     psi = 0.002*[#   8]
    |psi|^2 = 0.004

 k =   0.2500000000  0.0000000000  0.0000000000
==== e(   1) =   -80.07156 eV ==== 
     psi = 0.993*[#   1]+0.005*[#  10]
    |psi|^2 = 1.000
==== e(   2) =   -47.08511 eV ==== 
     psi = 0.982*[#   2]+0.011*[#   6]+0.004*[#  10]+0.002*[#   9]
    |psi|^2 = 1.000
==== e(   3) =   -47.00710 eV ==== 
     psi = 0.989*[#   4]+0.010*[#   8]
    |psi|^2 = 1.000
==== e(   4) =   -47.00710 eV ==== 
     psi = 0.989*[#   3]+0.010*[#   7]
    |psi|^2 = 1.000
==== e(   5) =   -14.29272 eV ==== 
     psi = 0.825*[#   9]+0.089*[#   6]+0.079*[#   5]+0.004*[#  10]
    |psi|^2 = 0.997
==== e(   6) =    -5.75330 eV ==== 
     psi = 0.652*[#  10]+0.288*[#   5]+0.047*[#   9]+0.002*[#   1]+0.001*[#   2]
          
    |psi|^2 = 0.991
==== e(   7) =    -4.24706 eV ==== 
     psi = 0.861*[#  11]+0.129*[#   7]
    |psi|^2 = 0.991
==== e(   8) =    -4.23193 eV ==== 
     psi = 0.867*[#  12]+0.124*[#   8]
    |psi|^2 = 0.991
==== e(   9) =    -3.36008 eV ==== 
     psi = 0.448*[#   5]+0.312*[#   6]+0.210*[#  10]+0.001*[#   1]
    |psi|^2 = 0.973
==== e(  10) =    -0.54136 eV ==== 
     psi = 0.546*[#   7]+0.087*[#  11]+0.007*[#   3]+0.006*[#   6]
    |psi|^2 = 0.645
==== e(  11) =    -0.14587 eV ==== 
     psi = 0.691*[#   8]+0.099*[#  12]+0.008*[#   4]
    |psi|^2 = 0.798
==== e(  12) =     0.61119 eV ==== 
     psi = 0.067*[#   7]+0.053*[#   6]+0.008*[#  11]+0.006*[#   9]+0.002*[#   5]
          
    |psi|^2 = 0.138
==== e(  13) =     0.71973 eV ==== 
     psi = 0.158*[#   6]+0.089*[#   5]+0.038*[#  10]+0.037*[#   9]+0.005*[#   2]
          
    |psi|^2 = 0.326
==== e(  14) =     1.58106 eV ==== 
     psi = 0.016*[#   7]+0.003*[#   5]+0.002*[#   6]+0.002*[#  10]+0.002*[#   9]
          +0.001*[#  11]
    |psi|^2 = 0.027
==== e(  15) =     1.78187 eV ==== 
     psi = 0.080*[#   7]+0.011*[#  11]+0.005*[#   6]+0.002*[#   9]+0.002*[#   5]
          
    |psi|^2 = 0.102
==== e(  16) =     2.28914 eV ==== 
     psi = 0.003*[#  10]+0.002*[#   5]
    |psi|^2 = 0.008
==== e(  17) =     2.50564 eV ==== 
     psi = 0.013*[#   8]+0.002*[#  12]
    |psi|^2 = 0.015
==== e(  18) =     2.62601 eV ==== 
     psi = 0.056*[#   6]+0.017*[#   5]+0.011*[#   9]+0.009*[#  10]+0.003*[#   7]
          +0.001*[#   2]+0.001*[#  11]
    |psi|^2 = 0.100
==== e(  19) =     3.12272 eV ==== 
     psi = 0.035*[#   8]+0.009*[#  12]
    |psi|^2 = 0.045
==== e(  20) =     3.20838 eV ==== 
     psi = 0.012*[#   7]+0.002*[#  11]
    |psi|^2 = 0.015
==== e(  21) =     3.29692 eV ==== 
     psi = 0.013*[#   6]+0.009*[#  10]+0.006*[#   5]+0.006*[#   7]+0.004*[#   9]
          +0.002*[#  11]
    |psi|^2 = 0.041
==== e(  22) =     3.87215 eV ==== 
     psi = 0.022*[#   6]+0.005*[#   9]+0.005*[#  10]+0.005*[#   5]+0.004*[#   7]
          
    |psi|^2 = 0.042
==== e(  23) =     4.15098 eV ==== 
     psi = 0.007*[#   8]+0.003*[#  12]
    |psi|^2 = 0.010
==== e(  24) =     4.23476 eV ==== 
     psi = 0.025*[#   7]+0.008*[#  11]
    |psi|^2 = 0.036
==== e(  25) =     4.51395 eV ==== 
     psi = 0.002*[#   7]
    |psi|^2 = 0.004
==== e(  26) =     4.53510 eV ==== 
     psi = 0.002*[#   8]+0.002*[#  12]
    |psi|^2 = 0.004
==== e(  27) =     4.76638 eV ==== 
     psi = 0.028*[#   6]+0.011*[#   5]+0.004*[#   9]+0.004*[#  10]
    |psi|^2 = 0.048
==== e(  28) =     4.96088 eV ==== 
     psi = 0.011*[#   8]+0.002*[#  12]
    |psi|^2 = 0.013
==== e(  29) =     5.17926 eV ==== 
 
    |psi|^2 = 0.002
==== e(  30) =     5.28076 eV ==== 
     psi = 0.018*[#   8]+0.003*[#  12]
    |psi|^2 = 0.021
==== e(  31) =     5.30862 eV ==== 
     psi = 0.002*[#   5]
    |psi|^2 = 0.005
==== e(  32) =     5.59655 eV ==== 
     psi = 0.014*[#   6]+0.004*[#   5]+0.003*[#   9]+0.001*[#  10]
    |psi|^2 = 0.023
==== e(  33) =     5.68602 eV ==== 
     psi = 0.010*[#   7]
    |psi|^2 = 0.011

 k =   0.2500000000  0.0000000000  0.1750000000
==== e(   1) =   -80.07156 eV ==== 
     psi = 0.993*[#   1]+0.005*[#  10]
    |psi|^2 = 1.000
==== e(   2) =   -47.08511 eV ==== 
     psi = 0.982*[#   2]+0.011*[#   6]+0.004*[#  10]+0.002*[#   9]
    |psi|^2 = 1.000
==== e(   3) =   -47.00710 eV ==== 
     psi = 0.989*[#   4]+0.010*[#   8]
    |psi|^2 = 1.000
==== e(   4) =   -47.00710 eV ==== 
     psi = 0.989*[#   3]+0.010*[#   7]
    |psi|^2 = 1.000
==== e(   5) =   -14.29272 eV ==== 
     psi = 0.825*[#   9]+0.089*[#   6]+0.079*[#   5]+0.004*[#  10]
    |psi|^2 = 0.997
==== e(   6) =    -5.75404 eV ==== 
     psi = 0.652*[#  10]+0.288*[#   5]+0.046*[#   9]+0.002*[#   1]+0.001*[#   2]
          
    |psi|^2 = 0.991
==== e(   7) =    -4.24697 eV ==== 
     psi = 0.861*[#  11]+0.129*[#   7]
    |psi|^2 = 0.991
==== e(   8) =    -4.23188 eV ==== 
     psi = 0.867*[#  12]+0.124*[#   8]
    |psi|^2 = 0.991
==== e(   9) =    -3.35463 eV ==== 
     psi = 0.448*[#   5]+0.313*[#   6]+0.210*[#  10]+0.001*[#   1]
    |psi|^2 = 0.974
==== e(  10) =    -0.54357 eV ==== 
     psi = 0.548*[#   7]+0.086*[#  11]+0.007*[#   3]+0.005*[#   6]
    |psi|^2 = 0.646
==== e(  11) =    -0.14894 eV ==== 
     psi = 0.690*[#   8]+0.098*[#  12]+0.008*[#   4]
    |psi|^2 = 0.797
==== e(  12) =     0.44728 eV ==== 
     psi = 0.111*[#   6]+0.056*[#   5]+0.026*[#   9]+0.024*[#  10]+0.014*[#   7]
          +0.003*[#   2]+0.002*[#  11]
    |psi|^2 = 0.238
==== e(  13) =     0.79574 eV ==== 
     psi = 0.084*[#   6]+0.054*[#   7]+0.023*[#   5]+0.013*[#   9]+0.008*[#  10]
          +0.007*[#  11]+0.002*[#   2]
    |psi|^2 = 0.192
==== e(  14) =     1.66570 eV ==== 
     psi = 0.045*[#   7]+0.008*[#   6]+0.006*[#   5]+0.005*[#  11]+0.004*[#  10]
          +0.002*[#   9]
    |psi|^2 = 0.071
==== e(  15) =     1.95205 eV ==== 
     psi = 0.052*[#   7]+0.010*[#   6]+0.009*[#   5]+0.008*[#  11]+0.006*[#  10]
          +0.003*[#   9]
    |psi|^2 = 0.089
==== e(  16) =     2.13588 eV ==== 
     psi = 0.022*[#   6]+0.009*[#   5]+0.005*[#   9]+0.005*[#  10]
    |psi|^2 = 0.042
==== e(  17) =     2.53288 eV ==== 
     psi = 0.012*[#   8]+0.002*[#  12]
    |psi|^2 = 0.013
==== e(  18) =     2.81263 eV ==== 
     psi = 0.035*[#   6]+0.008*[#   5]+0.006*[#   9]+0.005*[#   7]+0.003*[#  10]
          +0.001*[#  11]
    |psi|^2 = 0.060
==== e(  19) =     3.05289 eV ==== 
     psi = 0.013*[#   6]+0.008*[#  10]+0.007*[#   5]+0.004*[#   9]+0.002*[#   7]
          
    |psi|^2 = 0.035
==== e(  20) =     3.16667 eV ==== 
     psi = 0.039*[#   8]+0.010*[#  12]
    |psi|^2 = 0.050
==== e(  21) =     3.34961 eV ==== 
     psi = 0.010*[#   7]+0.003*[#  11]
    |psi|^2 = 0.015
==== e(  22) =     3.81898 eV ==== 
     psi = 0.006*[#   7]+0.003*[#   5]+0.003*[#   6]+0.002*[#  11]+0.001*[#  10]
          
    |psi|^2 = 0.015
==== e(  23) =     3.99752 eV ==== 
     psi = 0.014*[#   8]+0.004*[#  12]
    |psi|^2 = 0.018
==== e(  24) =     4.28007 eV ==== 
     psi = 0.017*[#   6]+0.013*[#   7]+0.006*[#   5]+0.004*[#   9]+0.004*[#  11]
          +0.003*[#  10]
    |psi|^2 = 0.046
==== e(  25) =     4.46054 eV ==== 
     psi = 0.005*[#   7]+0.005*[#   6]+0.002*[#  10]+0.002*[#  11]+0.002*[#   5]
          +0.001*[#   9]
    |psi|^2 = 0.018
==== e(  26) =     4.46953 eV ==== 
     psi = 0.002*[#   8]+0.001*[#  12]
    |psi|^2 = 0.004
==== e(  27) =     4.72842 eV ==== 
     psi = 0.041*[#   6]+0.011*[#   5]+0.010*[#   9]+0.009*[#  10]+0.006*[#   7]
          +0.001*[#  11]+0.001*[#   2]
    |psi|^2 = 0.079
==== e(  28) =     4.91038 eV ==== 
     psi = 0.005*[#   6]+0.002*[#   5]+0.001*[#   9]+0.001*[#  10]
    |psi|^2 = 0.009
==== e(  29) =     4.99045 eV ==== 
     psi = 0.011*[#   8]+0.002*[#  12]
    |psi|^2 = 0.013
==== e(  30) =     5.20303 eV ==== 
     psi = 0.012*[#   6]+0.005*[#   7]+0.002*[#   5]+0.002*[#   9]+0.001*[#  10]
          
    |psi|^2 = 0.023
==== e(  31) =     5.34839 eV ==== 
     psi = 0.005*[#   8]
    |psi|^2 = 0.005
==== e(  32) =     5.49158 eV ==== 
     psi = 0.004*[#   6]+0.002*[#   7]
    |psi|^2 = 0.009
==== e(  33) =     5.77357 eV ==== 
     psi = 0.002*[#   7]
    |psi|^2 = 0.004

 k =   0.2500000000  0.0000000000 -0.3500000000
==== e(   1) =   -80.07156 eV ==== 
     psi = 0.993*[#   1]+0.005*[#  10]
    |psi|^2 = 1.000
==== e(   2) =   -47.08511 eV ==== 
     psi = 0.982*[#   2]+0.011*[#   6]+0.004*[#  10]+0.002*[#   9]
    |psi|^2 = 1.000
==== e(   3) =   -47.00710 eV ==== 
     psi = 0.989*[#   4]+0.010*[#   8]
    |psi|^2 = 1.000
==== e(   4) =   -47.00710 eV ==== 
     psi = 0.989*[#   3]+0.010*[#   7]
    |psi|^2 = 1.000
==== e(   5) =   -14.29272 eV ==== 
     psi = 0.825*[#   9]+0.089*[#   6]+0.079*[#   5]+0.004*[#  10]
    |psi|^2 = 0.997
==== e(   6) =    -5.75478 eV ==== 
     psi = 0.652*[#  10]+0.288*[#   5]+0.046*[#   9]+0.002*[#   1]+0.001*[#   2]
          
    |psi|^2 = 0.991
==== e(   7) =    -4.24688 eV ==== 
     psi = 0.861*[#  11]+0.129*[#   7]
    |psi|^2 = 0.991
==== e(   8) =    -4.23183 eV ==== 
     psi = 0.867*[#  12]+0.124*[#   8]
    |psi|^2 = 0.991
==== e(   9) =    -3.34914 eV ==== 
     psi = 0.448*[#   5]+0.314*[#   6]+0.211*[#  10]+0.001*[#   1]
    |psi|^2 = 0.975
==== e(  10) =    -0.54577 eV ==== 
     psi = 0.551*[#   7]+0.086*[#  11]+0.007*[#   3]+0.004*[#   6]
    |psi|^2 = 0.648
==== e(  11) =    -0.15199 eV ==== 
     psi = 0.689*[#   8]+0.098*[#  12]+0.008*[#   4]
    |psi|^2 = 0.796
==== e(  12) =     0.34641 eV ==== 
     psi = 0.120*[#   6]+0.066*[#   5]+0.030*[#   9]+0.029*[#  10]+0.003*[#   2]
          +0.003*[#   7]
    |psi|^2 = 0.252
==== e(  13) =     0.82675 eV ==== 
     psi = 0.067*[#   6]+0.064*[#   7]+0.008*[#   9]+0.008*[#  11]+0.007*[#   5]
          +0.001*[#   2]
    |psi|^2 = 0.156
==== e(  14) =     1.80538 eV ==== 
     psi = 0.083*[#   7]+0.013*[#  11]+0.012*[#   6]+0.008*[#   5]+0.005*[#  10]
          +0.003*[#   9]+0.001*[#   3]
    |psi|^2 = 0.125
==== e(  15) =     1.82389 eV ==== 
     psi = 0.013*[#   6]+0.010*[#   7]+0.009*[#   5]+0.006*[#  10]+0.003*[#   9]
          
    |psi|^2 = 0.041
==== e(  16) =     2.38228 eV ==== 
     psi = 0.030*[#   6]+0.019*[#   5]+0.010*[#  10]+0.009*[#   7]+0.006*[#   9]
          +0.002*[#  11]
    |psi|^2 = 0.077
==== e(  17) =     2.56226 eV ==== 
     psi = 0.010*[#   8]+0.001*[#  12]
    |psi|^2 = 0.011
==== e(  18) =     2.76623 eV ==== 
     psi = 0.016*[#   6]+0.005*[#   7]+0.005*[#   5]+0.003*[#   9]
    |psi|^2 = 0.031
==== e(  19) =     3.08473 eV ==== 
     psi = 0.004*[#   6]+0.002*[#   7]
    |psi|^2 = 0.006
==== e(  20) =     3.21028 eV ==== 
     psi = 0.043*[#   8]+0.010*[#  12]
    |psi|^2 = 0.054
==== e(  21) =     3.41501 eV ==== 
     psi = 0.024*[#   6]+0.011*[#   5]+0.007*[#   9]+0.006*[#  10]
    |psi|^2 = 0.049
==== e(  22) =     3.50807 eV ==== 
     psi = 0.014*[#   7]+0.006*[#  11]
    |psi|^2 = 0.021
==== e(  23) =     3.91774 eV ==== 
     psi = 0.023*[#   8]+0.007*[#  12]
    |psi|^2 = 0.030
==== e(  24) =     4.28951 eV ==== 
     psi = 0.013*[#   6]+0.005*[#   5]+0.003*[#   9]+0.002*[#  10]
    |psi|^2 = 0.024
==== e(  25) =     4.34167 eV ==== 
 
    |psi|^2 = 0.000
==== e(  26) =     4.38143 eV ==== 
     psi = 0.010*[#   6]+0.007*[#   7]+0.005*[#  10]+0.003*[#   9]+0.003*[#   5]
          +0.002*[#  11]
    |psi|^2 = 0.030
==== e(  27) =     4.69753 eV ==== 
     psi = 0.020*[#   6]+0.006*[#   5]+0.005*[#  10]+0.005*[#   9]+0.002*[#   7]
          
    |psi|^2 = 0.039
==== e(  28) =     4.86866 eV ==== 
     psi = 0.001*[#   8]
    |psi|^2 = 0.002
==== e(  29) =     5.14180 eV ==== 
     psi = 0.037*[#   6]+0.009*[#   5]+0.007*[#   9]+0.006*[#  10]
    |psi|^2 = 0.060
==== e(  30) =     5.17528 eV ==== 
     psi = 0.022*[#   7]+0.008*[#   6]+0.004*[#  11]+0.002*[#   9]
    |psi|^2 = 0.038
==== e(  31) =     5.54447 eV ==== 
     psi = 0.010*[#   6]+0.004*[#   7]+0.002*[#   9]+0.002*[#   5]+0.001*[#  10]
          
    |psi|^2 = 0.021
==== e(  32) =     5.69087 eV ==== 
 
    |psi|^2 = 0.002
==== e(  33) =     5.91299 eV ==== 
     psi = 0.005*[#   8]+0.001*[#  12]
    |psi|^2 = 0.006

 k =   0.2500000000  0.0000000000 -0.1750000000
==== e(   1) =   -80.07156 eV ==== 
     psi = 0.993*[#   1]+0.005*[#  10]
    |psi|^2 = 1.000
==== e(   2) =   -47.08511 eV ==== 
     psi = 0.982*[#   2]+0.011*[#   6]+0.004*[#  10]+0.002*[#   9]
    |psi|^2 = 1.000
==== e(   3) =   -47.00710 eV ==== 
     psi = 0.989*[#   4]+0.010*[#   8]
    |psi|^2 = 1.000
==== e(   4) =   -47.00710 eV ==== 
     psi = 0.989*[#   3]+0.010*[#   7]
    |psi|^2 = 1.000
==== e(   5) =   -14.29272 eV ==== 
     psi = 0.825*[#   9]+0.089*[#   6]+0.079*[#   5]+0.004*[#  10]
    |psi|^2 = 0.997
==== e(   6) =    -5.75404 eV ==== 
     psi = 0.652*[#  10]+0.288*[#   5]+0.046*[#   9]+0.002*[#   1]+0.001*[#   2]
          
    |psi|^2 = 0.991
==== e(   7) =    -4.24697 eV ==== 
     psi = 0.861*[#  11]+0.129*[#   7]
    |psi|^2 = 0.991
==== e(   8) =    -4.23188 eV ==== 
     psi = 0.867*[#  12]+0.124*[#   8]
    |psi|^2 = 0.991
==== e(   9) =    -3.35463 eV ==== 
     psi = 0.448*[#   5]+0.313*[#   6]+0.210*[#  10]+0.001*[#   1]
    |psi|^2 = 0.974
==== e(  10) =    -0.54357 eV ==== 
     psi = 0.548*[#   7]+0.086*[#  11]+0.007*[#   3]+0.005*[#   6]
    |psi|^2 = 0.646
==== e(  11) =    -0.14894 eV ==== 
     psi = 0.690*[#   8]+0.098*[#  12]+0.008*[#   4]
    |psi|^2 = 0.797
==== e(  12) =     0.44728 eV ==== 
     psi = 0.111*[#   6]+0.056*[#   5]+0.026*[#   9]+0.024*[#  10]+0.014*[#   7]
          +0.003*[#   2]+0.002*[#  11]
    |psi|^2 = 0.238
==== e(  13) =     0.79574 eV ==== 
     psi = 0.084*[#   6]+0.054*[#   7]+0.023*[#   5]+0.013*[#   9]+0.008*[#  10]
          +0.007*[#  11]+0.002*[#   2]
    |psi|^2 = 0.192
==== e(  14) =     1.66570 eV ==== 
     psi = 0.045*[#   7]+0.008*[#   6]+0.006*[#   5]+0.005*[#  11]+0.004*[#  10]
          +0.002*[#   9]
    |psi|^2 = 0.071
==== e(  15) =     1.95205 eV ==== 
     psi = 0.052*[#   7]+0.010*[#   6]+0.009*[#   5]+0.008*[#  11]+0.006*[#  10]
          +0.003*[#   9]
    |psi|^2 = 0.089
==== e(  16) =     2.13588 eV ==== 
     psi = 0.022*[#   6]+0.009*[#   5]+0.005*[#   9]+0.005*[#  10]
    |psi|^2 = 0.042
==== e(  17) =     2.53288 eV ==== 
     psi = 0.012*[#   8]+0.002*[#  12]
    |psi|^2 = 0.013
==== e(  18) =     2.81263 eV ==== 
     psi = 0.035*[#   6]+0.008*[#   5]+0.006*[#   9]+0.005*[#   7]+0.003*[#  10]
          +0.001*[#  11]
    |psi|^2 = 0.060
==== e(  19) =     3.05289 eV ==== 
     psi = 0.013*[#   6]+0.008*[#  10]+0.007*[#   5]+0.004*[#   9]+0.002*[#   7]
          
    |psi|^2 = 0.035
==== e(  20) =     3.16667 eV ==== 
     psi = 0.039*[#   8]+0.010*[#  12]
    |psi|^2 = 0.050
==== e(  21) =     3.34961 eV ==== 
     psi = 0.010*[#   7]+0.003*[#  11]
    |psi|^2 = 0.015
==== e(  22) =     3.81898 eV ==== 
     psi = 0.006*[#   7]+0.003*[#   5]+0.003*[#   6]+0.002*[#  11]+0.001*[#  10]
          
    |psi|^2 = 0.015
==== e(  23) =     3.99752 eV ==== 
     psi = 0.014*[#   8]+0.004*[#  12]
    |psi|^2 = 0.018
==== e(  24) =     4.28007 eV ==== 
     psi = 0.017*[#   6]+0.013*[#   7]+0.006*[#   5]+0.004*[#   9]+0.004*[#  11]
          +0.003*[#  10]
    |psi|^2 = 0.046
==== e(  25) =     4.46054 eV ==== 
     psi = 0.005*[#   7]+0.005*[#   6]+0.002*[#  10]+0.002*[#  11]+0.002*[#   5]
          +0.001*[#   9]
    |psi|^2 = 0.018
==== e(  26) =     4.46953 eV ==== 
     psi = 0.002*[#   8]+0.001*[#  12]
    |psi|^2 = 0.004
==== e(  27) =     4.72842 eV ==== 
     psi = 0.041*[#   6]+0.011*[#   5]+0.010*[#   9]+0.009*[#  10]+0.006*[#   7]
          +0.001*[#  11]+0.001*[#   2]
    |psi|^2 = 0.079
==== e(  28) =     4.91038 eV ==== 
     psi = 0.005*[#   6]+0.002*[#   5]+0.001*[#   9]+0.001*[#  10]
    |psi|^2 = 0.009
==== e(  29) =     4.99045 eV ==== 
     psi = 0.011*[#   8]+0.002*[#  12]
    |psi|^2 = 0.013
==== e(  30) =     5.20303 eV ==== 
     psi = 0.012*[#   6]+0.005*[#   7]+0.002*[#   5]+0.002*[#   9]+0.001*[#  10]
          
    |psi|^2 = 0.023
==== e(  31) =     5.34839 eV ==== 
     psi = 0.005*[#   8]
    |psi|^2 = 0.005
==== e(  32) =     5.49158 eV ==== 
     psi = 0.004*[#   6]+0.002*[#   7]
    |psi|^2 = 0.009
==== e(  33) =     5.77357 eV ==== 
     psi = 0.002*[#   7]
    |psi|^2 = 0.004

 k =   0.2500000000  0.2500000000  0.0000000000
==== e(   1) =   -80.07156 eV ==== 
     psi = 0.993*[#   1]+0.005*[#  10]
    |psi|^2 = 1.000
==== e(   2) =   -47.08511 eV ==== 
     psi = 0.982*[#   2]+0.011*[#   6]+0.004*[#  10]+0.002*[#   9]
    |psi|^2 = 1.000
==== e(   3) =   -47.00710 eV ==== 
     psi = 0.495*[#   3]+0.495*[#   4]+0.005*[#   7]+0.005*[#   8]
    |psi|^2 = 1.000
==== e(   4) =   -47.00710 eV ==== 
     psi = 0.495*[#   3]+0.495*[#   4]+0.005*[#   7]+0.005*[#   8]
    |psi|^2 = 1.000
==== e(   5) =   -14.29265 eV ==== 
     psi = 0.824*[#   9]+0.089*[#   6]+0.079*[#   5]+0.004*[#  10]
    |psi|^2 = 0.997
==== e(   6) =    -5.75036 eV ==== 
     psi = 0.654*[#  10]+0.286*[#   5]+0.047*[#   9]+0.002*[#   1]+0.001*[#   2]
          
    |psi|^2 = 0.991
==== e(   7) =    -4.24600 eV ==== 
     psi = 0.431*[#  11]+0.431*[#  12]+0.064*[#   7]+0.064*[#   8]
    |psi|^2 = 0.991
==== e(   8) =    -4.24506 eV ==== 
     psi = 0.431*[#  11]+0.431*[#  12]+0.064*[#   7]+0.064*[#   8]
    |psi|^2 = 0.991
==== e(   9) =    -3.33782 eV ==== 
[...]
    |psi|^2 = 0.004
==== e(  24) =     4.26947 eV ==== 
     psi = 0.013*[#   7]+0.004*[#   6]+0.004*[#  11]+0.003*[#   5]+0.002*[#  10]
          +0.001*[#   9]
    |psi|^2 = 0.026
==== e(  25) =     4.30257 eV ==== 
 
    |psi|^2 = 0.002
==== e(  26) =     4.64495 eV ==== 
     psi = 0.012*[#   7]+0.009*[#   6]+0.004*[#  11]+0.003*[#   5]+0.001*[#   9]
          
    |psi|^2 = 0.031
==== e(  27) =     4.65265 eV ==== 
     psi = 0.016*[#   8]+0.004*[#  12]
    |psi|^2 = 0.020
==== e(  28) =     5.27113 eV ==== 
     psi = 0.017*[#   6]+0.011*[#   7]+0.005*[#  10]+0.005*[#   5]+0.004*[#   9]
          
    |psi|^2 = 0.043
==== e(  29) =     5.33627 eV ==== 
 
    |psi|^2 = 0.000
==== e(  30) =     5.44717 eV ==== 
     psi = 0.012*[#   6]+0.006*[#   7]+0.005*[#  10]+0.003*[#   9]+0.002*[#   5]
          
    |psi|^2 = 0.029
==== e(  31) =     5.62408 eV ==== 
     psi = 0.007*[#   8]+0.004*[#  12]
    |psi|^2 = 0.010
==== e(  32) =     5.66887 eV ==== 
     psi = 0.018*[#   6]+0.007*[#  10]+0.006*[#   5]+0.005*[#   9]+0.001*[#   7]
          
    |psi|^2 = 0.038
==== e(  33) =     5.90244 eV ==== 
     psi = 0.001*[#   8]
    |psi|^2 = 0.001

 k =  -0.2500000000 -0.2500000000  0.0000000000
==== e(   1) =   -80.07156 eV ==== 
     psi = 0.993*[#   1]+0.005*[#  10]
    |psi|^2 = 1.000
==== e(   2) =   -47.08511 eV ==== 
     psi = 0.982*[#   2]+0.011*[#   6]+0.004*[#  10]+0.002*[#   9]
    |psi|^2 = 1.000
==== e(   3) =   -47.00710 eV ==== 
     psi = 0.495*[#   3]+0.495*[#   4]+0.005*[#   7]+0.005*[#   8]
    |psi|^2 = 1.000
==== e(   4) =   -47.00710 eV ==== 
     psi = 0.495*[#   3]+0.495*[#   4]+0.005*[#   7]+0.005*[#   8]
    |psi|^2 = 1.000
==== e(   5) =   -14.29265 eV ==== 
     psi = 0.824*[#   9]+0.089*[#   6]+0.079*[#   5]+0.004*[#  10]
    |psi|^2 = 0.997
==== e(   6) =    -5.75036 eV ==== 
     psi = 0.654*[#  10]+0.286*[#   5]+0.047*[#   9]+0.002*[#   1]+0.001*[#   2]
          
    |psi|^2 = 0.991
==== e(   7) =    -4.24600 eV ==== 
     psi = 0.431*[#  11]+0.431*[#  12]+0.064*[#   7]+0.064*[#   8]
    |psi|^2 = 0.991
==== e(   8) =    -4.24506 eV ==== 
     psi = 0.431*[#  11]+0.431*[#  12]+0.064*[#   7]+0.064*[#   8]
    |psi|^2 = 0.991
==== e(   9) =    -3.33782 eV ==== 
     psi = 0.448*[#   5]+0.317*[#   6]+0.208*[#  10]+0.001*[#   1]
    |psi|^2 = 0.975
==== e(  10) =    -0.52362 eV ==== 
     psi = 0.272*[#   7]+0.272*[#   8]+0.043*[#  11]+0.043*[#  12]+0.007*[#   6]
          +0.003*[#   3]+0.003*[#   4]
    |psi|^2 = 0.644
==== e(  11) =    -0.43306 eV ==== 
     psi = 0.307*[#   7]+0.307*[#   8]+0.047*[#  11]+0.047*[#  12]+0.004*[#   3]
          +0.004*[#   4]
    |psi|^2 = 0.715
==== e(  12) =     0.82856 eV ==== 
     psi = 0.034*[#   5]+0.025*[#   6]+0.024*[#   7]+0.024*[#   8]+0.018*[#  10]
          +0.008*[#   9]+0.004*[#  11]+0.004*[#  12]+0.001*[#   2]
    |psi|^2 = 0.141
==== e(  13) =     0.93201 eV ==== 
     psi = 0.177*[#   6]+0.063*[#   5]+0.035*[#   9]+0.033*[#   7]+0.033*[#   8]
          +0.023*[#  10]+0.004*[#   2]+0.003*[#  11]+0.003*[#  12]
    |psi|^2 = 0.376
==== e(  14) =     1.69367 eV ==== 
     psi = 0.026*[#   6]+0.009*[#   7]+0.009*[#   8]+0.005*[#   5]+0.005*[#   9]
          +0.002*[#  10]+0.001*[#  11]+0.001*[#  12]
    |psi|^2 = 0.060
==== e(  15) =     1.85905 eV ==== 
     psi = 0.046*[#   7]+0.046*[#   8]+0.006*[#  11]+0.006*[#  12]
    |psi|^2 = 0.105
==== e(  16) =     2.10698 eV ==== 
     psi = 0.020*[#   7]+0.020*[#   8]+0.004*[#   6]+0.003*[#  11]+0.003*[#  12]
          
    |psi|^2 = 0.051
==== e(  17) =     2.33256 eV ==== 
     psi = 0.005*[#  10]+0.005*[#   5]+0.002*[#   6]+0.001*[#   9]
    |psi|^2 = 0.017
==== e(  18) =     2.50228 eV ==== 
     psi = 0.002*[#   7]+0.002*[#   8]+0.001*[#  11]+0.001*[#  12]
    |psi|^2 = 0.006
==== e(  19) =     2.85881 eV ==== 
     psi = 0.060*[#   6]+0.019*[#   5]+0.014*[#   9]+0.013*[#  10]+0.002*[#   2]
          
    |psi|^2 = 0.109
==== e(  20) =     3.06788 eV ==== 
     psi = 0.008*[#   7]+0.008*[#   8]+0.002*[#  11]+0.002*[#  12]
    |psi|^2 = 0.022
==== e(  21) =     3.56426 eV ==== 
     psi = 0.005*[#   7]+0.005*[#   8]+0.002*[#  11]+0.002*[#  12]+0.001*[#   6]
          
    |psi|^2 = 0.018
==== e(  22) =     3.78459 eV ==== 
     psi = 0.016*[#   6]+0.005*[#   7]+0.005*[#   8]+0.004*[#   5]+0.003*[#  10]
          +0.003*[#   9]+0.001*[#  11]+0.001*[#  12]
    |psi|^2 = 0.039
==== e(  23) =     4.10291 eV ==== 
     psi = 0.003*[#  10]
    |psi|^2 = 0.005
==== e(  24) =     4.18614 eV ==== 
     psi = 0.017*[#   7]+0.017*[#   8]+0.002*[#  11]+0.002*[#  12]
    |psi|^2 = 0.040
==== e(  25) =     4.49473 eV ==== 
     psi = 0.009*[#   7]+0.009*[#   8]+0.004*[#   6]+0.003*[#  11]+0.003*[#  12]
          
    |psi|^2 = 0.032
==== e(  26) =     4.64528 eV ==== 
     psi = 0.003*[#   7]+0.003*[#   8]+0.003*[#  11]+0.003*[#  12]
    |psi|^2 = 0.011
==== e(  27) =     4.86385 eV ==== 
     psi = 0.002*[#   6]+0.002*[#  10]
    |psi|^2 = 0.005
==== e(  28) =     5.03663 eV ==== 
     psi = 0.021*[#   6]+0.010*[#   5]+0.003*[#   9]+0.003*[#  10]+0.001*[#   7]
          +0.001*[#   8]
    |psi|^2 = 0.041
==== e(  29) =     5.07707 eV ==== 
     psi = 0.001*[#   7]+0.001*[#   8]
    |psi|^2 = 0.004
==== e(  30) =     5.45050 eV ==== 
     psi = 0.006*[#   7]+0.006*[#   8]
    |psi|^2 = 0.013
==== e(  31) =     5.55161 eV ==== 
     psi = 0.007*[#   6]+0.003*[#   7]+0.003*[#   8]+0.001*[#   5]
    |psi|^2 = 0.016
==== e(  32) =     5.76883 eV ==== 
 
    |psi|^2 = 0.002
==== e(  33) =     5.92809 eV ==== 
     psi = 0.003*[#   6]+0.001*[#   5]+0.001*[#   7]+0.001*[#   8]
    |psi|^2 = 0.008

 k =  -0.2500000000 -0.2500000000  0.1750000000
==== e(   1) =   -80.07156 eV ==== 
     psi = 0.993*[#   1]+0.005*[#  10]
    |psi|^2 = 1.000
==== e(   2) =   -47.08511 eV ==== 
     psi = 0.982*[#   2]+0.011*[#   6]+0.004*[#  10]+0.002*[#   9]
    |psi|^2 = 1.000
==== e(   3) =   -47.00710 eV ==== 
     psi = 0.495*[#   3]+0.495*[#   4]+0.005*[#   7]+0.005*[#   8]
    |psi|^2 = 1.000
==== e(   4) =   -47.00710 eV ==== 
     psi = 0.495*[#   3]+0.495*[#   4]+0.005*[#   7]+0.005*[#   8]
    |psi|^2 = 1.000
==== e(   5) =   -14.29265 eV ==== 
     psi = 0.824*[#   9]+0.089*[#   6]+0.079*[#   5]+0.004*[#  10]
    |psi|^2 = 0.997
==== e(   6) =    -5.75107 eV ==== 
     psi = 0.654*[#  10]+0.286*[#   5]+0.046*[#   9]+0.002*[#   1]+0.001*[#   2]
          
    |psi|^2 = 0.991
==== e(   7) =    -4.24591 eV ==== 
     psi = 0.431*[#  11]+0.431*[#  12]+0.064*[#   7]+0.064*[#   8]
    |psi|^2 = 0.991
==== e(   8) =    -4.24498 eV ==== 
     psi = 0.431*[#  11]+0.431*[#  12]+0.064*[#   7]+0.064*[#   8]
    |psi|^2 = 0.991
==== e(   9) =    -3.33266 eV ==== 
     psi = 0.448*[#   5]+0.317*[#   6]+0.208*[#  10]+0.001*[#   1]
    |psi|^2 = 0.976
==== e(  10) =    -0.52579 eV ==== 
     psi = 0.273*[#   7]+0.273*[#   8]+0.043*[#  11]+0.043*[#  12]+0.006*[#   6]
          +0.003*[#   3]+0.003*[#   4]
    |psi|^2 = 0.645
==== e(  11) =    -0.43662 eV ==== 
     psi = 0.307*[#   7]+0.307*[#   8]+0.047*[#  11]+0.047*[#  12]+0.004*[#   3]
          +0.004*[#   4]
    |psi|^2 = 0.714
==== e(  12) =     0.61628 eV ==== 
     psi = 0.110*[#   6]+0.061*[#   5]+0.028*[#  10]+0.027*[#   9]+0.007*[#   7]
          +0.007*[#   8]+0.003*[#   2]+0.001*[#  11]+0.001*[#  12]
    |psi|^2 = 0.247
==== e(  13) =     1.10604 eV ==== 
     psi = 0.073*[#   6]+0.059*[#   7]+0.059*[#   8]+0.023*[#   5]+0.013*[#   9]
          +0.008*[#  10]+0.007*[#  11]+0.007*[#  12]+0.002*[#   2]
    |psi|^2 = 0.253
==== e(  14) =     1.79542 eV ==== 
     psi = 0.038*[#   6]+0.010*[#   5]+0.006*[#   9]+0.003*[#  10]+0.001*[#   7]
          +0.001*[#   8]
    |psi|^2 = 0.062
==== e(  15) =     1.92498 eV ==== 
     psi = 0.044*[#   7]+0.044*[#   8]+0.006*[#  11]+0.006*[#  12]
    |psi|^2 = 0.100
==== e(  16) =     1.99807 eV ==== 
     psi = 0.018*[#   6]+0.012*[#   5]+0.009*[#  10]+0.009*[#   7]+0.009*[#   8]
          +0.005*[#   9]+0.002*[#  11]+0.002*[#  12]
    |psi|^2 = 0.065
==== e(  17) =     2.35674 eV ==== 
     psi = 0.010*[#   7]+0.010*[#   8]+0.002*[#  11]+0.002*[#  12]
    |psi|^2 = 0.024
==== e(  18) =     2.37550 eV ==== 
     psi = 0.008*[#   7]+0.008*[#   8]+0.006*[#   6]+0.004*[#   5]+0.003*[#  10]
          +0.002*[#   9]+0.002*[#  11]+0.002*[#  12]
    |psi|^2 = 0.036
==== e(  19) =     3.16583 eV ==== 
     psi = 0.024*[#   6]+0.009*[#   5]+0.006*[#  10]+0.006*[#   9]+0.003*[#   7]
          +0.003*[#   8]
    |psi|^2 = 0.052
==== e(  20) =     3.22694 eV ==== 
     psi = 0.007*[#   7]+0.007*[#   8]+0.002*[#  11]+0.002*[#  12]
    |psi|^2 = 0.019
==== e(  21) =     3.37737 eV ==== 
     psi = 0.026*[#   6]+0.008*[#   5]+0.005*[#   9]+0.005*[#  10]+0.003*[#   7]
          +0.003*[#   8]
    |psi|^2 = 0.052
==== e(  22) =     3.80100 eV ==== 
     psi = 0.008*[#   6]+0.004*[#   7]+0.004*[#   8]+0.003*[#   5]+0.001*[#   9]
          +0.001*[#  11]+0.001*[#  12]
    |psi|^2 = 0.022
==== e(  23) =     4.10470 eV ==== 
     psi = 0.008*[#   7]+0.008*[#   8]+0.003*[#  11]+0.003*[#  12]
    |psi|^2 = 0.023
==== e(  24) =     4.19114 eV ==== 
     psi = 0.011*[#   7]+0.011*[#   8]+0.002*[#  11]+0.002*[#  12]
    |psi|^2 = 0.025
==== e(  25) =     4.29093 eV ==== 
     psi = 0.004*[#   6]+0.001*[#   5]+0.001*[#   7]+0.001*[#   8]
    |psi|^2 = 0.009
==== e(  26) =     4.60103 eV ==== 
     psi = 0.003*[#   7]+0.003*[#   8]+0.001*[#  11]+0.001*[#  12]
    |psi|^2 = 0.008
==== e(  27) =     4.84432 eV ==== 
     psi = 0.002*[#   7]+0.002*[#   8]+0.001*[#  11]+0.001*[#  12]
    |psi|^2 = 0.007
==== e(  28) =     4.89260 eV ==== 
     psi = 0.008*[#   6]+0.003*[#   5]+0.003*[#   7]+0.003*[#   8]+0.002*[#  10]
          +0.002*[#   9]+0.001*[#  11]+0.001*[#  12]
    |psi|^2 = 0.022
==== e(  29) =     5.06322 eV ==== 
     psi = 0.038*[#   6]+0.010*[#   5]+0.009*[#  10]+0.008*[#   9]+0.004*[#   7]
          +0.004*[#   8]
    |psi|^2 = 0.074
==== e(  30) =     5.39872 eV ==== 
     psi = 0.014*[#   6]+0.004*[#  10]+0.003*[#   9]+0.003*[#   5]
    |psi|^2 = 0.025
==== e(  31) =     5.51624 eV ==== 
     psi = 0.003*[#   7]+0.003*[#   8]
    |psi|^2 = 0.006
==== e(  32) =     5.61447 eV ==== 
     psi = 0.003*[#   6]+0.002*[#   7]+0.002*[#   8]+0.001*[#  10]
    |psi|^2 = 0.012
==== e(  33) =     5.98259 eV ==== 
     psi = 0.003*[#   7]+0.003*[#   8]
    |psi|^2 = 0.009

 k =  -0.2500000000 -0.2500000000 -0.3500000000
==== e(   1) =   -80.07156 eV ==== 
     psi = 0.993*[#   1]+0.005*[#  10]
    |psi|^2 = 1.000
==== e(   2) =   -47.08511 eV ==== 
     psi = 0.982*[#   2]+0.011*[#   6]+0.004*[#  10]+0.002*[#   9]
    |psi|^2 = 1.000
==== e(   3) =   -47.00710 eV ==== 
     psi = 0.495*[#   3]+0.495*[#   4]+0.005*[#   7]+0.005*[#   8]
    |psi|^2 = 1.000
==== e(   4) =   -47.00710 eV ==== 
     psi = 0.495*[#   3]+0.495*[#   4]+0.005*[#   7]+0.005*[#   8]
    |psi|^2 = 1.000
==== e(   5) =   -14.29265 eV ==== 
     psi = 0.824*[#   9]+0.089*[#   6]+0.079*[#   5]+0.004*[#  10]
    |psi|^2 = 0.997
==== e(   6) =    -5.75178 eV ==== 
     psi = 0.654*[#  10]+0.286*[#   5]+0.046*[#   9]+0.002*[#   1]+0.001*[#   2]
          
    |psi|^2 = 0.991
==== e(   7) =    -4.24582 eV ==== 
     psi = 0.431*[#  11]+0.431*[#  12]+0.064*[#   7]+0.064*[#   8]
    |psi|^2 = 0.991
==== e(   8) =    -4.24490 eV ==== 
     psi = 0.431*[#  11]+0.431*[#  12]+0.064*[#   7]+0.064*[#   8]
    |psi|^2 = 0.991
==== e(   9) =    -3.32747 eV ==== 
     psi = 0.448*[#   5]+0.318*[#   6]+0.208*[#  10]+0.001*[#   1]
    |psi|^2 = 0.978
==== e(  10) =    -0.52798 eV ==== 
     psi = 0.274*[#   7]+0.274*[#   8]+0.043*[#  11]+0.043*[#  12]+0.005*[#   6]
          +0.003*[#   3]+0.003*[#   4]
    |psi|^2 = 0.646
==== e(  11) =    -0.44015 eV ==== 
     psi = 0.306*[#   7]+0.306*[#   8]+0.047*[#  11]+0.047*[#  12]+0.004*[#   3]
          +0.004*[#   4]
    |psi|^2 = 0.713
==== e(  12) =     0.50660 eV ==== 
     psi = 0.121*[#   6]+0.067*[#   5]+0.031*[#   9]+0.030*[#  10]+0.004*[#   2]
          +0.002*[#   7]+0.002*[#   8]
    |psi|^2 = 0.259
==== e(  13) =     1.19450 eV ==== 
     psi = 0.072*[#   7]+0.072*[#   8]+0.049*[#   6]+0.008*[#  11]+0.008*[#  12]
          +0.008*[#   5]+0.007*[#   9]+0.001*[#  10]
    |psi|^2 = 0.228
==== e(  14) =     1.83611 eV ==== 
     psi = 0.062*[#   6]+0.027*[#   5]+0.014*[#  10]+0.013*[#   9]+0.002*[#   7]
          +0.002*[#   8]+0.002*[#   2]
    |psi|^2 = 0.123
==== e(  15) =     1.88933 eV ==== 
     psi = 0.003*[#   6]+0.001*[#  10]
    |psi|^2 = 0.006
==== e(  16) =     2.06730 eV ==== 
     psi = 0.054*[#   7]+0.054*[#   8]+0.007*[#  11]+0.007*[#  12]
    |psi|^2 = 0.124
==== e(  17) =     2.15714 eV ==== 
     psi = 0.002*[#   7]+0.002*[#   8]+0.001*[#  11]+0.001*[#  12]
    |psi|^2 = 0.007
==== e(  18) =     2.63873 eV ==== 
     psi = 0.014*[#   6]+0.011*[#   5]+0.006*[#   7]+0.006*[#   8]+0.005*[#  10]
          +0.003*[#   9]+0.002*[#  11]+0.002*[#  12]
    |psi|^2 = 0.048
==== e(  19) =     3.18560 eV ==== 
     psi = 0.009*[#   7]+0.009*[#   8]+0.002*[#  11]+0.002*[#  12]
    |psi|^2 = 0.025
==== e(  20) =     3.39678 eV ==== 
     psi = 0.019*[#   6]+0.010*[#   5]+0.005*[#   9]+0.004*[#  10]
    |psi|^2 = 0.040
==== e(  21) =     3.40579 eV ==== 
     psi = 0.011*[#   7]+0.011*[#   8]+0.003*[#  11]+0.003*[#  12]
    |psi|^2 = 0.028
==== e(  22) =     3.72758 eV ==== 
     psi = 0.011*[#   6]+0.003*[#   7]+0.003*[#   8]+0.002*[#   9]
    |psi|^2 = 0.020
==== e(  23) =     3.87211 eV ==== 
     psi = 0.017*[#   6]+0.007*[#   5]+0.003*[#   9]+0.003*[#  10]
    |psi|^2 = 0.032
==== e(  24) =     4.13412 eV ==== 
 
    |psi|^2 = 0.001
==== e(  25) =     4.44168 eV ==== 
 
    |psi|^2 = 0.000
==== e(  26) =     4.54423 eV ==== 
     psi = 0.029*[#   6]+0.013*[#   7]+0.013*[#   8]+0.009*[#  10]+0.008*[#   5]
          +0.007*[#   9]+0.003*[#  11]+0.003*[#  12]
    |psi|^2 = 0.087
==== e(  27) =     4.62072 eV ==== 
     psi = 0.016*[#   6]+0.005*[#   5]+0.003*[#   9]+0.002*[#  10]
    |psi|^2 = 0.027
==== e(  28) =     4.84050 eV ==== 
     psi = 0.006*[#   7]+0.006*[#   8]+0.001*[#  11]+0.001*[#  12]
    |psi|^2 = 0.014
==== e(  29) =     5.13080 eV ==== 
     psi = 0.011*[#   6]+0.003*[#   5]+0.003*[#   9]+0.003*[#  10]+0.001*[#   7]
          +0.001*[#   8]
    |psi|^2 = 0.025
==== e(  30) =     5.34509 eV ==== 
 
    |psi|^2 = 0.002
==== e(  31) =     5.60350 eV ==== 
     psi = 0.021*[#   6]+0.005*[#  10]+0.004*[#   9]+0.003*[#   5]
    |psi|^2 = 0.034
==== e(  32) =     5.67534 eV ==== 
     psi = 0.004*[#   7]+0.004*[#   8]
    |psi|^2 = 0.008
==== e(  33) =     5.87173 eV ==== 
     psi = 0.008*[#   7]+0.008*[#   8]+0.003*[#  11]+0.003*[#  12]
    |psi|^2 = 0.023

 k =  -0.2500000000 -0.2500000000 -0.1750000000
==== e(   1) =   -80.07156 eV ==== 
     psi = 0.993*[#   1]+0.005*[#  10]
    |psi|^2 = 1.000
==== e(   2) =   -47.08511 eV ==== 
     psi = 0.982*[#   2]+0.011*[#   6]+0.004*[#  10]+0.002*[#   9]
    |psi|^2 = 1.000
==== e(   3) =   -47.00710 eV ==== 
     psi = 0.495*[#   3]+0.495*[#   4]+0.005*[#   7]+0.005*[#   8]
    |psi|^2 = 1.000
==== e(   4) =   -47.00710 eV ==== 
     psi = 0.495*[#   3]+0.495*[#   4]+0.005*[#   7]+0.005*[#   8]
    |psi|^2 = 1.000
==== e(   5) =   -14.29265 eV ==== 
     psi = 0.824*[#   9]+0.089*[#   6]+0.079*[#   5]+0.004*[#  10]
    |psi|^2 = 0.997
==== e(   6) =    -5.75107 eV ==== 
     psi = 0.654*[#  10]+0.286*[#   5]+0.046*[#   9]+0.002*[#   1]+0.001*[#   2]
          
    |psi|^2 = 0.991
==== e(   7) =    -4.24591 eV ==== 
     psi = 0.431*[#  11]+0.431*[#  12]+0.064*[#   7]+0.064*[#   8]
    |psi|^2 = 0.991
==== e(   8) =    -4.24498 eV ==== 
     psi = 0.431*[#  11]+0.431*[#  12]+0.064*[#   7]+0.064*[#   8]
    |psi|^2 = 0.991
==== e(   9) =    -3.33266 eV ==== 
     psi = 0.448*[#   5]+0.317*[#   6]+0.208*[#  10]+0.001*[#   1]
    |psi|^2 = 0.976
==== e(  10) =    -0.52579 eV ==== 
     psi = 0.273*[#   7]+0.273*[#   8]+0.043*[#  11]+0.043*[#  12]+0.006*[#   6]
          +0.003*[#   3]+0.003*[#   4]
    |psi|^2 = 0.645
==== e(  11) =    -0.43662 eV ==== 
     psi = 0.307*[#   7]+0.307*[#   8]+0.047*[#  11]+0.047*[#  12]+0.004*[#   3]
          +0.004*[#   4]
    |psi|^2 = 0.714
==== e(  12) =     0.61628 eV ==== 
     psi = 0.110*[#   6]+0.061*[#   5]+0.028*[#  10]+0.027*[#   9]+0.007*[#   7]
          +0.007*[#   8]+0.003*[#   2]+0.001*[#  11]+0.001*[#  12]
    |psi|^2 = 0.247
==== e(  13) =     1.10604 eV ==== 
     psi = 0.073*[#   6]+0.059*[#   7]+0.059*[#   8]+0.023*[#   5]+0.013*[#   9]
          +0.008*[#  10]+0.007*[#  11]+0.007*[#  12]+0.002*[#   2]
    |psi|^2 = 0.253
==== e(  14) =     1.79542 eV ==== 
     psi = 0.038*[#   6]+0.010*[#   5]+0.006*[#   9]+0.003*[#  10]+0.001*[#   7]
          +0.001*[#   8]
    |psi|^2 = 0.062
==== e(  15) =     1.92498 eV ==== 
     psi = 0.044*[#   7]+0.044*[#   8]+0.006*[#  11]+0.006*[#  12]
    |psi|^2 = 0.100
==== e(  16) =     1.99807 eV ==== 
     psi = 0.018*[#   6]+0.012*[#   5]+0.009*[#  10]+0.009*[#   7]+0.009*[#   8]
          +0.005*[#   9]+0.002*[#  11]+0.002*[#  12]
    |psi|^2 = 0.065
==== e(  17) =     2.35674 eV ==== 
     psi = 0.010*[#   7]+0.010*[#   8]+0.002*[#  11]+0.002*[#  12]
    |psi|^2 = 0.024
==== e(  18) =     2.37550 eV ==== 
     psi = 0.008*[#   7]+0.008*[#   8]+0.006*[#   6]+0.004*[#   5]+0.003*[#  10]
          +0.002*[#   9]+0.002*[#  11]+0.002*[#  12]
    |psi|^2 = 0.036
==== e(  19) =     3.16583 eV ==== 
     psi = 0.024*[#   6]+0.009*[#   5]+0.006*[#  10]+0.006*[#   9]+0.003*[#   7]
          +0.003*[#   8]
    |psi|^2 = 0.052
==== e(  20) =     3.22694 eV ==== 
     psi = 0.007*[#   7]+0.007*[#   8]+0.002*[#  11]+0.002*[#  12]
    |psi|^2 = 0.019
==== e(  21) =     3.37737 eV ==== 
     psi = 0.026*[#   6]+0.008*[#   5]+0.005*[#   9]+0.005*[#  10]+0.003*[#   7]
          +0.003*[#   8]
    |psi|^2 = 0.052
==== e(  22) =     3.80100 eV ==== 
     psi = 0.008*[#   6]+0.004*[#   7]+0.004*[#   8]+0.003*[#   5]+0.001*[#   9]
          +0.001*[#  11]+0.001*[#  12]
    |psi|^2 = 0.022
==== e(  23) =     4.10470 eV ==== 
     psi = 0.008*[#   7]+0.008*[#   8]+0.003*[#  11]+0.003*[#  12]
    |psi|^2 = 0.023
==== e(  24) =     4.19114 eV ==== 
     psi = 0.011*[#   7]+0.011*[#   8]+0.002*[#  11]+0.002*[#  12]
    |psi|^2 = 0.025
==== e(  25) =     4.29093 eV ==== 
     psi = 0.004*[#   6]+0.001*[#   5]+0.001*[#   7]+0.001*[#   8]
    |psi|^2 = 0.009
==== e(  26) =     4.60103 eV ==== 
     psi = 0.003*[#   7]+0.003*[#   8]+0.001*[#  11]+0.001*[#  12]
    |psi|^2 = 0.008
==== e(  27) =     4.84432 eV ==== 
     psi = 0.002*[#   7]+0.002*[#   8]+0.001*[#  11]+0.001*[#  12]
    |psi|^2 = 0.007
==== e(  28) =     4.89260 eV ==== 
     psi = 0.008*[#   6]+0.003*[#   5]+0.003*[#   7]+0.003*[#   8]+0.002*[#  10]
          +0.002*[#   9]+0.001*[#  11]+0.001*[#  12]
    |psi|^2 = 0.022
==== e(  29) =     5.06322 eV ==== 
     psi = 0.038*[#   6]+0.010*[#   5]+0.009*[#  10]+0.008*[#   9]+0.004*[#   7]
          +0.004*[#   8]
    |psi|^2 = 0.074
==== e(  30) =     5.39872 eV ==== 
     psi = 0.014*[#   6]+0.004*[#  10]+0.003*[#   9]+0.003*[#   5]
    |psi|^2 = 0.025
==== e(  31) =     5.51624 eV ==== 
     psi = 0.003*[#   7]+0.003*[#   8]
    |psi|^2 = 0.006
==== e(  32) =     5.61447 eV ==== 
     psi = 0.003*[#   6]+0.002*[#   7]+0.002*[#   8]+0.001*[#  10]
    |psi|^2 = 0.012
==== e(  33) =     5.98259 eV ==== 
     psi = 0.003*[#   7]+0.003*[#   8]
    |psi|^2 = 0.009

Lowdin Charges: 

     Atom #   1: total charge =   9.4073, s =  2.7233, 
     Atom #   1: total charge =   9.4073, p =  6.6840, pz=  2.1712, px=  2.2564, py=  2.2564, 
     Atom #   2: total charge =   6.5326, s =  1.7484, 
     Atom #   2: total charge =   6.5326, p =  4.7842, pz=  1.3335, px=  1.7253, py=  1.7253, 
     Spilling Parameter:   0.0038
 
     PROJWFC      :      6.32s CPU      7.27s WALL

 
   This run was terminated on:  21:27:57  16Apr2020            

=------------------------------------------------------------------------------=
   JOB DONE.
=------------------------------------------------------------------------------=
