ANIMSTEPS  4
CRYSTAL
PRIMVEC 1
2.600001036227576   2.600001036227576   0.0
2.600001036227576   0.0   2.600001036227576
0.0   2.600001036227576   2.600001036227576
PRIMCOORD 1
2        1
13   0.0   0.0   0.0   -5.283604188938109e-13   -5.283701877858319e-13   -5.283653184896915e-13
15   1.300000518113788   1.300000518113788   1.300000518113788   0.0   0.0   0.0
PRIMVEC 2
2.7909756643279775   2.7909756643279775   0.0
2.7909756643279775   0.0   2.7909756643279775
0.0   2.7909756643279775   2.7909756643279775
PRIMCOORD 2
2        1
13   0.0   0.0   0.0   -4.468510920648895e-9   -4.468510911050157e-9   -4.468510924169825e-9
15   1.3954878321639888   1.3954878321639888   1.3954878321639888   4.468510920648895e-9   4.468510911050157e-9   4.468510924169825e-9
PRIMVEC 3
2.7909756643279775   2.7909756643279775   0.0
2.7909756643279775   0.0   2.7909756643279775
0.0   2.7909756643279775   2.7909756643279775
PRIMCOORD 3
2        1
13   0.0   0.0   0.0   -4.468501213013234e-9   -4.468501195265782e-9   -4.468501211450897e-9
15   1.3954878321639888   1.3954878321639888   1.3954878321639888   4.468501213013234e-9   4.468501195265782e-9   4.468501211450897e-9
PRIMVEC 4
2.773332919072999   2.773332919072999   -1.91867993936109e-7
2.773332919072999   -1.91867993936109e-7   2.773332919072999
-1.91867993936109e-7   2.773332919072999   2.773332919072999
PRIMCOORD 4
2        1
13   -5.772187009448452e-8   -5.772187009448451e-8   -5.772187009448451e-8   2.4401257719456855e-8   2.440125773256353e-8   2.4401257762664257e-8
15   1.386666469291371   1.3866664692913713   1.3866664692913713   -2.4401257719456855e-8   -2.440125773256353e-8   -2.4401257762664257e-8
