ANIMSTEPS  62
CRYSTAL
PRIMVEC 1
2.600001036227576   2.600001036227576   0.0
2.600001036227576   0.0   2.600001036227576
0.0   2.600001036227576   2.600001036227576
PRIMCOORD 1
2        1
13   0.0   0.0   0.0   -4.881481265776143e-13   -4.881504813716767e-13   -4.881467062436745e-13
15   1.300000518113788   1.300000518113788   1.300000518113788   0.0   0.0   0.0
PRIMVEC 2
2.6886332353078073   2.6886332353078073   0.0
2.6886332353078073   0.0   2.6886332353078073
0.0   2.6886332353078073   2.6886332353078073
PRIMCOORD 2
2        1
13   0.0   0.0   0.0   -7.758650804224519e-14   -7.758639037242135e-14   -7.758443649492562e-14
15   1.3443166176539036   1.3443166176539036   1.3443166176539036   0.0   0.0   0.0
PRIMVEC 3
2.740259165460985   2.740259165460985   0.0
2.740259165460985   0.0   2.740259165460985
0.0   2.740259165460985   2.740259165460985
PRIMCOORD 3
2        1
13   0.0   0.0   0.0   -5.5736531500463554e-15   -5.558754925249058e-15   -5.559233152405028e-15
15   1.3701295827304925   1.3701295827304925   1.3701295827304925   0.0   0.0   0.0
PRIMVEC 4
2.766799425468983   2.766799425468983   0.0
2.766799425468983   0.0   2.766799425468983
0.0   2.766799425468983   2.766799425468983
PRIMCOORD 4
2        1
13   0.0   0.0   0.0   1.8797137099598757e-14   1.880553651246452e-14   1.881594497650828e-14
15   1.3833997127344915   1.3833997127344915   1.3833997127344915   0.0   0.0   0.0
PRIMVEC 5
2.777588856467047   2.777588856467047   0.0
2.777588856467047   0.0   2.777588856467047
0.0   2.777588856467047   2.777588856467047
PRIMCOORD 5
2        1
13   0.0   0.0   0.0   -4.92455874249138e-9   -4.924558743725013e-9   -4.924558755911211e-9
15   1.3887944282335234   1.3887944282335234   1.3887944282335234   4.92455874249138e-9   4.924558743725013e-9   4.924558755911211e-9
PRIMVEC 6
2.7820205383261007   2.7820205383261007   -1.0159404185443987e-7
2.7820205383261007   -1.0159404185443987e-7   2.7820205383261007
-1.0159404185443987e-7   2.7820205383261007   2.7820205383261007
PRIMCOORD 6
2        1
13   -3.120556595354726e-8   -3.120556595354726e-8   -3.120556595354726e-8   8.424427383346057e-9   8.424427510075127e-9   8.424427432778897e-9
15   1.3910102749701059   1.3910102749701057   1.3910102749701057   -8.424427383346057e-9   -8.424427510075127e-9   -8.424427432778897e-9
PRIMVEC 7
2.7821791276758976   2.7821791276758976   -1.0652328885520678e-7
2.7821791276758976   -1.0652328885520678e-7   2.7821791276758976
-1.0652328885520678e-7   2.7821791276758976   2.7821791276758976
PRIMCOORD 7
2        1
13   -2.7416265652039733e-8   -2.7416265652039733e-8   -2.7416265652039733e-8   5.856440776453535e-9   5.8564407596831735e-9   5.8564402411460185e-9
15   1.3910895646233923   1.3910895646233923   1.3910895646233923   -5.856440776453535e-9   -5.8564407596831735e-9   -5.8564402411460185e-9
PRIMVEC 8
2.7821791276758976   2.7821791276758976   -1.0652328885520678e-7
2.7821791276758976   -1.0652328885520678e-7   2.7821791276758976
-1.0652328885520678e-7   2.7821791276758976   2.7821791276758976
PRIMCOORD 8
2        1
13   -2.7416265652039733e-8   -2.7416265652039733e-8   -2.7416265652039733e-8   5.856375928954063e-9   5.856375932637399e-9   5.856375410624971e-9
15   1.3910895646233923   1.3910895646233923   1.3910895646233923   -5.856375928954063e-9   -5.856375932637399e-9   -5.856375410624971e-9
PRIMVEC 9
2.7843078963967978   2.7843078963967978   -1.7192643133248584e-7
2.7843078963967978   -1.7192643133248584e-7   2.7843078963967978
-1.7192643133248584e-7   2.7843078963967978   2.7843078963967978
PRIMCOORD 9
2        1
13   6.854545328483676e-9   6.8545453284836755e-9   6.8545453284836755e-9   -1.8327829027824237e-8   -1.832782903986076e-8   -1.832782910308253e-8
15   1.3921538983622457   1.3921538983622457   1.3921538983622457   1.8327829027824237e-8   1.832782903986076e-8   1.832782910308253e-8
PRIMVEC 10
2.784525638320684   2.784525638320684   -1.7193476828137266e-7
2.784525638320684   -1.719347682813727e-7   2.784525638320684
-1.719347682813727e-7   2.784525638320684   2.784525638320684
PRIMCOORD 10
2        1
13   -1.462660298932358e-8   -1.4626602989323582e-8   -1.4626602989323582e-8   -5.380819210534153e-9   -5.380819216062842e-9   -5.380819798727489e-9
15   1.392262790803253   1.3922627908032528   1.3922627908032528   5.380819210534153e-9   5.380819216062842e-9   5.380819798727489e-9
PRIMVEC 11
2.7844167673587403   2.7844167673587403   -1.7193059980692923e-7
2.7844167673587403   -1.7193059980692923e-7   2.7844167673587403
-1.7193059980692923e-7   2.7844167673587403   2.7844167673587403
PRIMCOORD 11
2        1
13   -3.885608878878426e-9   -3.8856088788784256e-9   -3.8856088788784256e-9   -1.1852158095171831e-8   -1.185215810669567e-8   -1.1852158131558959e-8
15   1.392208344582329   1.392208344582329   1.392208344582329   1.1852158095171831e-8   1.185215810669567e-8   1.1852158131558959e-8
PRIMVEC 12
2.784471202839712   2.784471202839712   -1.7193268404415096e-7
2.784471202839712   -1.7193268404415096e-7   2.784471202839712
-1.7193268404415096e-7   2.784471202839712   2.784471202839712
PRIMCOORD 12
2        1
13   -9.256000946215624e-9   -9.256000946215622e-9   -9.256000946215622e-9   -8.616259547784228e-9   -8.616259382952692e-9   -8.616259370695263e-9
15   1.392235567692686   1.3922355676926856   1.3922355676926856   8.616259547784228e-9   8.616259382952692e-9   8.616259370695263e-9
PRIMVEC 13
2.7844984205801984   2.7844984205801984   -1.719337261627618e-7
2.7844984205801984   -1.719337261627618e-7   2.7844984205801984
-1.719337261627618e-7   2.7844984205801984   2.7844984205801984
PRIMCOORD 13
2        1
13   -1.1941275720798253e-8   -1.1941275720798253e-8   -1.1941275720798253e-8   -6.998490253377756e-9   -6.998490300670492e-9   -6.99849074262559e-9
15   1.3922491792479432   1.3922491792479432   1.3922491792479432   6.998490253377756e-9   6.998490300670492e-9   6.99849074262559e-9
PRIMVEC 14
2.784512029450441   2.784512029450441   -1.7193424722206724e-7
2.784512029450441   -1.7193424722206724e-7   2.784512029450441
-1.7193424722206724e-7   2.784512029450441   2.784512029450441
PRIMCOORD 14
2        1
13   -1.3283932793318081e-8   -1.3283932793318081e-8   -1.328393279331808e-8   -6.189630122778612e-9   -6.189632128994903e-9   -6.189632148946468e-9
15   1.3922559850255916   1.3922559850255916   1.3922559850255916   6.189630122778612e-9   6.189632128994903e-9   6.189632148946468e-9
PRIMVEC 15
2.784518833885562   2.784518833885562   -1.7193450775171993e-7
2.784518833885562   -1.7193450775171993e-7   2.784518833885562
-1.7193450775171993e-7   2.784518833885562   2.784518833885562
PRIMCOORD 15
2        1
13   -1.3955266250885121e-8   -1.3955266250885123e-8   -1.3955266250885123e-8   -5.785200807063104e-9   -5.7852007604366185e-9   -5.785200844503155e-9
15   1.3922593879144203   1.3922593879144203   1.3922593879144203   5.785200807063104e-9   5.7852007604366185e-9   5.785200844503155e-9
PRIMVEC 16
2.7845222361031228   2.7845222361031228   -1.7193463801654628e-7
2.7845222361031228   -1.7193463801654628e-7   2.7845222361031228
-1.7193463801654628e-7   2.7845222361031228   2.7845222361031228
PRIMCOORD 16
2        1
13   -1.4290934209995421e-8   -1.4290934209995421e-8   -1.4290934209995421e-8   -5.582979800887226e-9   -5.582981091857844e-9   -5.582980979213739e-9
15   1.3922610893588359   1.3922610893588359   1.3922610893588359   5.582979800887226e-9   5.582981091857844e-9   5.582980979213739e-9
PRIMVEC 17
2.7845239372119033   2.7845239372119033   -1.7193470314895947e-7
2.7845239372119033   -1.7193470314895947e-7   2.7845239372119033
-1.7193470314895947e-7   2.7845239372119033   2.7845239372119033
PRIMCOORD 17
2        1
13   -1.445876849713227e-8   -1.4458768497132272e-8   -1.4458768497132272e-8   -5.481870099774907e-9   -5.481870121408099e-9   -5.481870102841836e-9
15   1.3922619400810443   1.3922619400810443   1.3922619400810443   5.481870099774907e-9   5.481870121408099e-9   5.481870102841836e-9
PRIMVEC 18
2.7845247877662938   2.7845247877662938   -1.7193473571516607e-7
2.7845247877662938   -1.7193473571516607e-7   2.7845247877662938
-1.7193473571516607e-7   2.7845247877662938   2.7845247877662938
PRIMCOORD 18
2        1
13   -1.4542685717596119e-8   -1.4542685717596119e-8   -1.4542685717596119e-8   -5.431311666416044e-9   -5.431310986263292e-9   -5.4313114408272585e-9
15   1.3922623654421484   1.3922623654421487   1.3922623654421487   5.431311666416044e-9   5.431310986263292e-9   5.4313114408272585e-9
PRIMVEC 19
2.784525213043489   2.784525213043489   -1.7193475199826934e-7
2.784525213043489   -1.7193475199826934e-7   2.784525213043489
-1.7193475199826934e-7   2.784525213043489   2.784525213043489
PRIMCOORD 19
2        1
13   -1.4584644347051896e-8   -1.4584644347051896e-8   -1.4584644347051896e-8   -5.406032636833362e-9   -5.406032632572624e-9   -5.406031717662003e-9
15   1.3922625781227007   1.3922625781227007   1.3922625781227007   5.406032636833362e-9   5.406032632572624e-9   5.406031717662003e-9
PRIMVEC 20
2.7845254256820864   2.7845254256820864   -1.7193476013982104e-7
2.7845254256820864   -1.7193476013982099e-7   2.7845254256820864
-1.7193476013982099e-7   2.7845254256820864   2.7845254256820864
PRIMCOORD 20
2        1
13   -1.4605623666585754e-8   -1.4605623666585754e-8   -1.4605623666585752e-8   -5.3933917261734966e-9   -5.393391634623009e-9   -5.393394145515571e-9
15   1.3922626844629766   1.3922626844629769   1.3922626844629769   5.3933917261734966e-9   5.393391634623009e-9   5.393394145515571e-9
PRIMVEC 21
2.784525532001385   2.784525532001385   -1.7193476421059682e-7
2.784525532001385   -1.7193476421059682e-7   2.784525532001385
-1.7193476421059682e-7   2.784525532001385   2.784525532001385
PRIMCOORD 21
2        1
13   -1.4616113327554172e-8   -1.4616113327554168e-8   -1.4616113327554168e-8   -5.3870731846550815e-9   -5.387073164166389e-9   -5.387073165500296e-9
15   1.3922627376331145   1.3922627376331145   1.3922627376331145   5.3870731846550815e-9   5.387073164166389e-9   5.387073165500296e-9
PRIMVEC 22
2.784525585161034   2.784525585161034   -1.7193476624598473e-7
2.784525585161034   -1.7193476624598476e-7   2.784525585161034
-1.7193476624598476e-7   2.784525585161034   2.784525585161034
PRIMCOORD 22
2        1
13   -1.4621358158338748e-8   -1.4621358158338748e-8   -1.4621358158338748e-8   -5.383912503828707e-9   -5.383912452462317e-9   -5.383911720658294e-9
15   1.3922627642181837   1.3922627642181837   1.3922627642181837   5.383912503828707e-9   5.383912452462317e-9   5.383911720658294e-9
PRIMVEC 23
2.784525611740859   2.784525611740859   -1.719347672636787e-7
2.784525611740859   -1.719347672636787e-7   2.784525611740859
-1.719347672636787e-7   2.784525611740859   2.784525611740859
PRIMCOORD 23
2        1
13   -1.4623980573806138e-8   -1.4623980573806138e-8   -1.4623980573806138e-8   -5.382333159035666e-9   -5.382333156113615e-9   -5.382333283932279e-9
15   1.3922627775107184   1.3922627775107184   1.3922627775107181   5.382333159035666e-9   5.382333156113615e-9   5.382333283932279e-9
PRIMVEC 24
2.784525625030771   2.784525625030771   -1.719347677725257e-7
2.784525625030771   -1.7193476777252567e-7   2.784525625030771
-1.7193476777252567e-7   2.784525625030771   2.784525625030771
PRIMCOORD 24
2        1
13   -1.46252917815586e-8   -1.46252917815586e-8   -1.46252917815586e-8   -5.381543579587917e-9   -5.381543829575796e-9   -5.381543564121991e-9
15   1.3922627841569852   1.3922627841569852   1.3922627841569852   5.381543579587917e-9   5.381543829575796e-9   5.381543564121991e-9
PRIMVEC 25
2.784525631675728   2.784525631675728   -1.719347680269492e-7
2.784525631675728   -1.719347680269492e-7   2.784525631675728
-1.719347680269492e-7   2.784525631675728   2.784525631675728
PRIMCOORD 25
2        1
13   -1.4625947385439526e-8   -1.4625947385439526e-8   -1.4625947385439526e-8   -5.381146924081979e-9   -5.381146949890016e-9   -5.38114755466188e-9
15   1.3922627874801192   1.3922627874801192   1.3922627874801192   5.381146924081979e-9   5.381146949890016e-9   5.38114755466188e-9
PRIMVEC 26
2.784525634998206   2.784525634998206   -1.7193476815416094e-7
2.784525634998206   -1.719347681541609e-7   2.784525634998206
-1.719347681541609e-7   2.784525634998206   2.784525634998206
PRIMCOORD 26
2        1
13   -1.462627518738116e-8   -1.462627518738116e-8   -1.462627518738116e-8   -5.380949898176126e-9   -5.380949881975542e-9   -5.380949980709531e-9
15   1.3922627891416859   1.3922627891416859   1.3922627891416857   5.380949898176126e-9   5.380949881975542e-9   5.380949980709531e-9
PRIMVEC 27
2.7845256366594446   2.7845256366594446   -1.7193476821776681e-7
2.7845256366594446   -1.719347682177668e-7   2.7845256366594446
-1.719347682177668e-7   2.7845256366594446   2.7845256366594446
PRIMCOORD 27
2        1
13   -1.462643908835227e-8   -1.462643908835227e-8   -1.4626439088352272e-8   -5.380851434436324e-9   -5.3808514219480085e-9   -5.380851473821722e-9
15   1.392262789972469   1.392262789972469   1.392262789972469   5.380851434436324e-9   5.3808514219480085e-9   5.380851473821722e-9
PRIMVEC 28
2.784525637490064   2.784525637490064   -1.7193476824956972e-7
2.784525637490064   -1.7193476824956972e-7   2.784525637490064
-1.7193476824956972e-7   2.784525637490064   2.784525637490064
PRIMCOORD 28
2        1
13   -1.46265210388379e-8   -1.46265210388379e-8   -1.4626521038837902e-8   -5.380802102590128e-9   -5.380802056181767e-9   -5.38080208513743e-9
15   1.392262790387861   1.392262790387861   1.3922627903878608   5.380802102590128e-9   5.380802056181767e-9   5.38080208513743e-9
PRIMVEC 29
2.7845256379053738   2.7845256379053738   -1.719347682654712e-7
2.7845256379053738   -1.719347682654712e-7   2.7845256379053738
-1.719347682654712e-7   2.7845256379053738   2.7845256379053738
PRIMCOORD 29
2        1
13   -1.462656201408073e-8   -1.462656201408073e-8   -1.462656201408073e-8   -5.380777153788287e-9   -5.380777147323841e-9   -5.380777251366986e-9
15   1.392262790595557   1.392262790595557   1.3922627905955567   5.380777153788287e-9   5.380777147323841e-9   5.380777251366986e-9
PRIMVEC 30
2.784525638113029   2.784525638113029   -1.719347682734219e-7
2.784525638113029   -1.7193476827342193e-7   2.784525638113029
-1.7193476827342193e-7   2.784525638113029   2.784525638113029
PRIMCOORD 30
2        1
13   -1.4626582501702156e-8   -1.4626582501702156e-8   -1.4626582501702156e-8   -5.38076475849178e-9   -5.380764744087378e-9   -5.380764752409259e-9
15   1.3922627906994047   1.3922627906994047   1.3922627906994047   5.38076475849178e-9   5.380764744087378e-9   5.380764752409259e-9
PRIMVEC 31
2.7845256382168566   2.7845256382168566   -1.7193476827739732e-7
2.7845256382168566   -1.7193476827739732e-7   2.7845256382168566
-1.7193476827739732e-7   2.7845256382168566   2.7845256382168566
PRIMCOORD 31
2        1
13   -1.4626592745512865e-8   -1.4626592745512865e-8   -1.4626592745512865e-8   -5.380758917540183e-9   -5.380758952745986e-9   -5.380758859945977e-9
15   1.3922627907513287   1.3922627907513287   1.3922627907513285   5.380758917540183e-9   5.380758952745986e-9   5.380758859945977e-9
PRIMVEC 32
2.78452563826877   2.78452563826877   -1.7193476827938497e-7
2.78452563826877   -1.7193476827938497e-7   2.78452563826877
-1.7193476827938497e-7   2.78452563826877   2.78452563826877
PRIMCOORD 32
2        1
13   -1.4626597867418224e-8   -1.4626597867418221e-8   -1.4626597867418221e-8   -5.380756099989617e-9   -5.38075605890498e-9   -5.380756060589811e-9
15   1.3922627907772909   1.3922627907772909   1.3922627907772909   5.380756099989617e-9   5.38075605890498e-9   5.380756060589811e-9
PRIMVEC 33
2.7845256382947268   2.7845256382947268   -1.719347682803788e-7
2.7845256382947268   -1.719347682803788e-7   2.7845256382947268
-1.719347682803788e-7   2.7845256382947268   2.7845256382947268
PRIMCOORD 33
2        1
13   -1.46266004283709e-8   -1.46266004283709e-8   -1.46266004283709e-8   -5.380753739332992e-9   -5.3807536527883576e-9   -5.380753356959282e-9
15   1.3922627907902716   1.3922627907902714   1.3922627907902714   5.380753739332992e-9   5.3807536527883576e-9   5.380753356959282e-9
PRIMVEC 34
2.7845256383077053   2.7845256383077053   -1.7193476828087572e-7
2.7845256383077053   -1.7193476828087572e-7   2.7845256383077053
-1.7193476828087572e-7   2.7845256383077053   2.7845256383077053
PRIMCOORD 34
2        1
13   -1.462660170884724e-8   -1.462660170884724e-8   -1.4626601708847239e-8   -5.38075316952845e-9   -5.380753144246455e-9   -5.380753132989169e-9
15   1.3922627907967622   1.392262790796762   1.392262790796762   5.38075316952845e-9   5.380753144246455e-9   5.380753132989169e-9
PRIMVEC 35
2.7845256383141948   2.7845256383141948   -1.719347682811242e-7
2.7845256383141948   -1.719347682811242e-7   2.7845256383141948
-1.719347682811242e-7   2.7845256383141948   2.7845256383141948
PRIMCOORD 35
2        1
13   -1.4626602349085409e-8   -1.4626602349085409e-8   -1.4626602349085409e-8   -5.380753127662771e-9   -5.3807532897273e-9   -5.380753235294705e-9
15   1.3922627908000078   1.3922627908000076   1.3922627908000076   5.380753127662771e-9   5.3807532897273e-9   5.380753235294705e-9
PRIMVEC 36
2.7845256383174393   2.7845256383174393   -1.719347682812484e-7
2.7845256383174393   -1.719347682812484e-7   2.7845256383174393
-1.719347682812484e-7   2.7845256383174393   2.7845256383174393
PRIMCOORD 36
2        1
13   -1.4626602669204498e-8   -1.4626602669204498e-8   -1.4626602669204498e-8   -5.38075241985881e-9   -5.380752481789521e-9   -5.380752459232946e-9
15   1.3922627908016303   1.3922627908016303   1.3922627908016303   5.38075241985881e-9   5.380752481789521e-9   5.380752459232946e-9
PRIMVEC 37
2.784525638319061   2.784525638319061   -1.7193476828131054e-7
2.784525638319061   -1.7193476828131054e-7   2.784525638319061
-1.7193476828131054e-7   2.784525638319061   2.784525638319061
PRIMCOORD 37
2        1
13   -1.4626602829264035e-8   -1.4626602829264035e-8   -1.4626602829264035e-8   -5.380753178692079e-9   -5.380753170929278e-9   -5.380753472898215e-9
15   1.3922627908024412   1.3922627908024412   1.3922627908024412   5.380753178692079e-9   5.380753170929278e-9   5.380753472898215e-9
PRIMVEC 38
2.7845256383198724   2.7845256383198724   -1.7193476828134159e-7
2.7845256383198724   -1.7193476828134159e-7   2.7845256383198724
-1.7193476828134159e-7   2.7845256383198724   2.7845256383198724
PRIMCOORD 38
2        1
13   -1.4626602909293811e-8   -1.4626602909293811e-8   -1.4626602909293811e-8   -5.380752062193799e-9   -5.380752069883879e-9   -5.380752131173739e-9
15   1.3922627908028469   1.3922627908028469   1.3922627908028469   5.380752062193799e-9   5.380752069883879e-9   5.380752131173739e-9
PRIMVEC 39
2.7845256383202783   2.7845256383202783   -1.7193476828135712e-7
2.7845256383202783   -1.7193476828135715e-7   2.7845256383202783
-1.7193476828135715e-7   2.7845256383202783   2.7845256383202783
PRIMCOORD 39
2        1
13   -1.4626602949308695e-8   -1.4626602949308695e-8   -1.4626602949308695e-8   -5.380751958717854e-9   -5.380751928771105e-9   -5.3807519814237435e-9
15   1.3922627908030498   1.3922627908030498   1.3922627908030498   5.380751958717854e-9   5.380751928771105e-9   5.3807519814237435e-9
PRIMVEC 40
2.7845256383204813   2.7845256383204813   -1.7193476828136488e-7
2.7845256383204813   -1.7193476828136488e-7   2.7845256383204813
-1.7193476828136488e-7   2.7845256383204813   2.7845256383204813
PRIMCOORD 40
2        1
13   -1.4626602969316139e-8   -1.4626602969316137e-8   -1.4626602969316137e-8   -5.3807523087212605e-9   -5.380752268708559e-9   -5.380752288133663e-9
15   1.3922627908031517   1.3922627908031515   1.3922627908031515   5.3807523087212605e-9   5.380752268708559e-9   5.380752288133663e-9
PRIMVEC 41
2.784525638320582   2.784525638320582   -1.7193476828136874e-7
2.784525638320582   -1.7193476828136874e-7   2.784525638320582
-1.7193476828136874e-7   2.784525638320582   2.784525638320582
PRIMCOORD 41
2        1
13   -1.462660297931986e-8   -1.462660297931986e-8   -1.462660297931986e-8   -5.3807522042971494e-9   -5.380752249970667e-9   -5.380752240681536e-9
15   1.3922627908032021   1.392262790803202   1.392262790803202   5.3807522042971494e-9   5.380752249970667e-9   5.380752240681536e-9
PRIMVEC 42
2.7845256383206327   2.7845256383206327   -1.719347682813707e-7
2.7845256383206327   -1.719347682813707e-7   2.7845256383206327
-1.719347682813707e-7   2.7845256383206327   2.7845256383206327
PRIMCOORD 42
2        1
13   -1.4626602984321716e-8   -1.4626602984321718e-8   -1.4626602984321718e-8   -5.380752059817822e-9   -5.380752056404459e-9   -5.380751963799811e-9
15   1.3922627908032277   1.3922627908032275   1.3922627908032275   5.380752059817822e-9   5.380752056404459e-9   5.380751963799811e-9
PRIMVEC 43
2.784525638320658   2.784525638320658   -1.7193476828137166e-7
2.784525638320658   -1.7193476828137166e-7   2.784525638320658
-1.7193476828137166e-7   2.784525638320658   2.784525638320658
PRIMCOORD 43
2        1
13   -1.462660298682265e-8   -1.4626602986822652e-8   -1.4626602986822652e-8   -5.380753305724978e-9   -5.380753287872792e-9   -5.3807533023143375e-9
15   1.3922627908032403   1.3922627908032401   1.3922627908032401   5.380753305724978e-9   5.380753287872792e-9   5.3807533023143375e-9
PRIMVEC 44
2.7845256383206713   2.7845256383206713   -1.7193476828137219e-7
2.7845256383206713   -1.7193476828137219e-7   2.7845256383206713
-1.7193476828137219e-7   2.7845256383206713   2.7845256383206713
PRIMCOORD 44
2        1
13   -1.4626602988073116e-8   -1.4626602988073116e-8   -1.4626602988073116e-8   -5.380752243682957e-9   -5.3807522839899945e-9   -5.380753652228498e-9
15   1.3922627908032468   1.3922627908032466   1.3922627908032466   5.380752243682957e-9   5.3807522839899945e-9   5.380753652228498e-9
PRIMVEC 45
2.7845256383206776   2.7845256383206776   -1.719347682813724e-7
2.7845256383206776   -1.719347682813724e-7   2.7845256383206776
-1.719347682813724e-7   2.7845256383206776   2.7845256383206776
PRIMCOORD 45
2        1
13   -1.4626602988698349e-8   -1.4626602988698349e-8   -1.4626602988698349e-8   -5.380752605190251e-9   -5.380752602074207e-9   -5.380752605446549e-9
15   1.3922627908032499   1.3922627908032497   1.3922627908032497   5.380752605190251e-9   5.380752602074207e-9   5.380752605446549e-9
PRIMVEC 46
2.7845256383206802   2.7845256383206802   -1.719347682813725e-7
2.7845256383206802   -1.719347682813725e-7   2.7845256383206802
-1.719347682813725e-7   2.7845256383206802   2.7845256383206802
PRIMCOORD 46
2        1
13   -1.4626602989010964e-8   -1.4626602989010964e-8   -1.4626602989010964e-8   -5.380752240957892e-9   -5.380752204357418e-9   -5.380752247219964e-9
15   1.3922627908032512   1.392262790803251   1.392262790803251   5.380752240957892e-9   5.380752204357418e-9   5.380752247219964e-9
PRIMVEC 47
2.784525638320682   2.784525638320682   -1.7193476828137258e-7
2.784525638320682   -1.719347682813726e-7   2.784525638320682
-1.719347682813726e-7   2.784525638320682   2.784525638320682
PRIMCOORD 47
2        1
13   -1.4626602989167271e-8   -1.4626602989167271e-8   -1.4626602989167271e-8   -5.380752504634332e-9   -5.380752532939939e-9   -5.3807525043090965e-9
15   1.3922627908032523   1.392262790803252   1.392262790803252   5.380752504634332e-9   5.380752532939939e-9   5.3807525043090965e-9
PRIMVEC 48
2.7845256383206833   2.7845256383206833   -1.719347682813726e-7
2.7845256383206833   -1.719347682813726e-7   2.7845256383206833
-1.719347682813726e-7   2.7845256383206833   2.7845256383206833
PRIMCOORD 48
2        1
13   -1.4626602989245426e-8   -1.4626602989245428e-8   -1.4626602989245428e-8   -5.380752363099864e-9   -5.38075230206995e-9   -5.380752246271922e-9
15   1.3922627908032528   1.3922627908032525   1.3922627908032525   5.380752363099864e-9   5.38075230206995e-9   5.380752246271922e-9
PRIMVEC 49
2.784525638320684   2.784525638320684   -1.7193476828137266e-7
2.784525638320684   -1.719347682813727e-7   2.784525638320684
-1.719347682813727e-7   2.784525638320684   2.784525638320684
PRIMCOORD 49
2        1
13   -1.4626602989284502e-8   -1.4626602989284502e-8   -1.4626602989284502e-8   -5.380752078106235e-9   -5.380752078223185e-9   -5.380752670396646e-9
15   1.392262790803253   1.3922627908032528   1.3922627908032528   5.380752078106235e-9   5.380752078223185e-9   5.380752670396646e-9
PRIMVEC 50
2.784525638320684   2.784525638320684   -1.7193476828137266e-7
2.784525638320684   -1.719347682813727e-7   2.784525638320684
-1.719347682813727e-7   2.784525638320684   2.784525638320684
PRIMCOORD 50
2        1
13   -1.4626602989304039e-8   -1.4626602989304039e-8   -1.4626602989304039e-8   -5.380752064323365e-9   -5.380752082126482e-9   -5.380752657320592e-9
15   1.392262790803253   1.3922627908032528   1.3922627908032528   5.380752064323365e-9   5.380752082126482e-9   5.380752657320592e-9
PRIMVEC 51
2.784525638320684   2.784525638320684   -1.7193476828137266e-7
2.784525638320684   -1.719347682813727e-7   2.784525638320684
-1.719347682813727e-7   2.784525638320684   2.784525638320684
PRIMCOORD 51
2        1
13   -1.462660298931381e-8   -1.4626602989313811e-8   -1.4626602989313811e-8   -5.380752063125996e-9   -5.380752082901861e-9   -5.380752656830036e-9
15   1.392262790803253   1.3922627908032528   1.3922627908032528   5.380752063125996e-9   5.380752082901861e-9   5.380752656830036e-9
PRIMVEC 52
2.784525638320684   2.784525638320684   -1.7193476828137266e-7
2.784525638320684   -1.719347682813727e-7   2.784525638320684
-1.719347682813727e-7   2.784525638320684   2.784525638320684
PRIMCOORD 52
2        1
13   -1.4626602989318693e-8   -1.4626602989318693e-8   -1.4626602989318693e-8   -5.380752069731938e-9   -5.380752073319661e-9   -5.380752661448723e-9
15   1.392262790803253   1.3922627908032528   1.3922627908032528   5.380752069731938e-9   5.380752073319661e-9   5.380752661448723e-9
PRIMVEC 53
2.784525638320684   2.784525638320684   -1.7193476828137266e-7
2.784525638320684   -1.719347682813727e-7   2.784525638320684
-1.719347682813727e-7   2.784525638320684   2.784525638320684
PRIMCOORD 53
2        1
13   -1.4626602989321133e-8   -1.4626602989321135e-8   -1.4626602989321135e-8   -5.380752080231947e-9   -5.380752082332195e-9   -5.380752662321033e-9
15   1.392262790803253   1.3922627908032528   1.3922627908032528   5.380752080231947e-9   5.380752082332195e-9   5.380752662321033e-9
PRIMVEC 54
2.784525638320684   2.784525638320684   -1.7193476828137266e-7
2.784525638320684   -1.719347682813727e-7   2.784525638320684
-1.719347682813727e-7   2.784525638320684   2.784525638320684
PRIMCOORD 54
2        1
13   -1.4626602989322356e-8   -1.4626602989322356e-8   -1.4626602989322356e-8   -5.380752080231947e-9   -5.380752082332195e-9   -5.380752662321033e-9
15   1.392262790803253   1.3922627908032528   1.3922627908032528   5.380752080231947e-9   5.380752082332195e-9   5.380752662321033e-9
PRIMVEC 55
2.784525638320684   2.784525638320684   -1.7193476828137266e-7
2.784525638320684   -1.719347682813727e-7   2.784525638320684
-1.719347682813727e-7   2.784525638320684   2.784525638320684
PRIMCOORD 55
2        1
13   -1.4626602989322966e-8   -1.4626602989322968e-8   -1.4626602989322968e-8   -5.3807520746987535e-9   -5.380752077853949e-9   -5.380752666314001e-9
15   1.392262790803253   1.3922627908032528   1.3922627908032528   5.3807520746987535e-9   5.380752077853949e-9   5.380752666314001e-9
PRIMVEC 56
2.784525638320684   2.784525638320684   -1.7193476828137266e-7
2.784525638320684   -1.719347682813727e-7   2.784525638320684
-1.719347682813727e-7   2.784525638320684   2.784525638320684
PRIMCOORD 56
2        1
13   -1.462660298932327e-8   -1.4626602989323272e-8   -1.4626602989323272e-8   -5.3807520678323744e-9   -5.3807520743528465e-9   -5.380752662208942e-9
15   1.392262790803253   1.3922627908032528   1.3922627908032528   5.3807520678323744e-9   5.3807520743528465e-9   5.380752662208942e-9
PRIMVEC 57
2.784525638320684   2.784525638320684   -1.7193476828137266e-7
2.784525638320684   -1.719347682813727e-7   2.784525638320684
-1.719347682813727e-7   2.784525638320684   2.784525638320684
PRIMCOORD 57
2        1
13   -1.462660298932343e-8   -1.462660298932343e-8   -1.462660298932343e-8   -5.3807520678323744e-9   -5.3807520743528465e-9   -5.380752662208942e-9
15   1.392262790803253   1.3922627908032528   1.3922627908032528   5.3807520678323744e-9   5.3807520743528465e-9   5.380752662208942e-9
PRIMVEC 58
2.784525638320684   2.784525638320684   -1.7193476828137266e-7
2.784525638320684   -1.719347682813727e-7   2.784525638320684
-1.719347682813727e-7   2.784525638320684   2.784525638320684
PRIMCOORD 58
2        1
13   -1.4626602989323505e-8   -1.4626602989323507e-8   -1.4626602989323507e-8   -5.3807520678323744e-9   -5.3807520743528465e-9   -5.380752662208942e-9
15   1.392262790803253   1.3922627908032528   1.3922627908032528   5.3807520678323744e-9   5.3807520743528465e-9   5.380752662208942e-9
PRIMVEC 59
2.784525638320684   2.784525638320684   -1.7193476828137266e-7
2.784525638320684   -1.719347682813727e-7   2.784525638320684
-1.719347682813727e-7   2.784525638320684   2.784525638320684
PRIMCOORD 59
2        1
13   -1.4626602989323542e-8   -1.4626602989323545e-8   -1.4626602989323545e-8   -5.3807520678323744e-9   -5.3807520743528465e-9   -5.380752662208942e-9
15   1.392262790803253   1.3922627908032528   1.3922627908032528   5.3807520678323744e-9   5.3807520743528465e-9   5.380752662208942e-9
PRIMVEC 60
2.784525638320684   2.784525638320684   -1.7193476828137266e-7
2.784525638320684   -1.719347682813727e-7   2.784525638320684
-1.719347682813727e-7   2.784525638320684   2.784525638320684
PRIMCOORD 60
2        1
13   -1.4626602989323562e-8   -1.4626602989323562e-8   -1.4626602989323562e-8   -5.3807520678323744e-9   -5.3807520743528465e-9   -5.380752662208942e-9
15   1.392262790803253   1.3922627908032528   1.3922627908032528   5.3807520678323744e-9   5.3807520743528465e-9   5.380752662208942e-9
PRIMVEC 61
2.784525638320684   2.784525638320684   -1.7193476828137266e-7
2.784525638320684   -1.719347682813727e-7   2.784525638320684