ANIMSTEPS  4
CRYSTAL
PRIMVEC 1
2.600001036227576   2.600001036227576   0.0
2.600001036227576   0.0   2.600001036227576
0.0   2.600001036227576   2.600001036227576
PRIMCOORD 1
2        1
13   0.0   0.0   0.0   -5.283664556436699e-13   -5.283684160926083e-13   -5.283608027550661e-13
15   1.300000518113788   1.300000518113788   1.300000518113788   0.0   0.0   0.0
PRIMVEC 2
2.7909756643279797   2.7909756643279797   0.0
2.7909756643279797   0.0   2.7909756643279797
0.0   2.7909756643279797   2.7909756643279797
PRIMCOORD 2
2        1
13   0.0   0.0   0.0   -4.468510928321137e-9   -4.4685109222575135e-9   -4.468510928898343e-9
15   1.3954878321639899   1.3954878321639899   1.3954878321639899   4.468510928321137e-9   4.4685109222575135e-9   4.468510928898343e-9
PRIMVEC 3
2.7909756643279797   2.7909756643279797   0.0
2.7909756643279797   0.0   2.7909756643279797
0.0   2.7909756643279797   2.7909756643279797
PRIMCOORD 3
2        1
13   0.0   0.0   0.0   -4.468501206404431e-9   -4.468501202587911e-9   -4.468501219064429e-9
15   1.3954878321639899   1.3954878321639899   1.3954878321639899   4.468501206404431e-9   4.468501202587911e-9   4.468501219064429e-9
PRIMVEC 4
2.7733329190730087   2.7733329190730087   -1.9186799396204635e-7
2.7733329190730087   -1.9186799396204635e-7   2.7733329190730087
-1.9186799396204635e-7   2.7733329190730087   2.7733329190730087
PRIMCOORD 4
2        1
13   -5.7721870099076614e-8   -5.7721870099076614e-8   -5.7721870099076614e-8   2.4401258300815232e-8   2.4401258303947014e-8   2.4401258108241954e-8
15   1.386666469291376   1.3866664692913762   1.3866664692913762   -2.4401258300815232e-8   -2.4401258303947014e-8   -2.4401258108241954e-8
