ANIMSTEPS  59
CRYSTAL
PRIMVEC 1
2.600001036227576   2.600001036227576   0.0
2.600001036227576   0.0   2.600001036227576
0.0   2.600001036227576   2.600001036227576
PRIMCOORD 1
2        1
13   0.0   0.0   0.0   -4.88140073707686e-13   -4.8815305795683e-13   -4.881398792240061e-13
15   1.300000518113788   1.300000518113788   1.300000518113788   0.0   0.0   0.0
PRIMVEC 2
2.688633224617884   2.688633224617884   0.0
2.688633224617884   0.0   2.688633224617884
0.0   2.688633224617884   2.688633224617884
PRIMCOORD 2
2        1
13   0.0   0.0   0.0   -7.760051275493561e-14   -7.75982503348725e-14   -7.758548363193286e-14
15   1.344316612308942   1.344316612308942   1.344316612308942   0.0   0.0   0.0
PRIMVEC 3
2.7402583719690305   2.7402583719690305   0.0
2.7402583719690305   0.0   2.7402583719690305
0.0   2.7402583719690305   2.7402583719690305
PRIMCOORD 3
2        1
13   0.0   0.0   0.0   -5.560068415574399e-15   -5.5526097876937716e-15   -5.558498756793926e-15
15   1.3701291859845153   1.3701291859845153   1.3701291859845153   0.0   0.0   0.0
PRIMVEC 4
2.7667986903868607   2.7667986903868607   0.0
2.7667986903868607   0.0   2.7667986903868607
0.0   2.7667986903868607   2.7667986903868607
PRIMCOORD 4
2        1
13   0.0   0.0   0.0   1.8806631031628124e-14   1.880128999642832e-14   1.881902053436561e-14
15   1.3833993451934303   1.3833993451934303   1.3833993451934303   0.0   0.0   0.0
PRIMVEC 5
2.7775881501727167   2.7775881501727167   0.0
2.7775881501727167   0.0   2.7775881501727167
0.0   2.7775881501727167   2.7775881501727167
PRIMCOORD 5
2        1
13   0.0   0.0   0.0   -4.924615863440679e-9   -4.924615851565132e-9   -4.9246158625584035e-9
15   1.3887940750863583   1.3887940750863583   1.3887940750863583   4.924615863440679e-9   4.924615851565132e-9   4.9246158625584035e-9
PRIMVEC 6
2.7820198893086143   2.7820198893086143   -1.0158831475777457e-7
2.7820198893086143   -1.0158831475777457e-7   2.7820198893086143
-1.0158831475777457e-7   2.7820198893086143   2.7820198893086143
PRIMCOORD 6
2        1
13   -3.120382846878488e-8   -3.120382846878488e-8   -3.120382846878488e-8   8.423693630717446e-9   8.423693624997216e-9   8.423693582630233e-9
15   1.3910099504610571   1.3910099504610571   1.3910099504610574   -8.423693630717446e-9   -8.423693624997216e-9   -8.423693582630233e-9
PRIMVEC 7
2.7824672917600703   2.7824672917600703   -1.154928670792115e-7
2.7824672917600703   -1.154928670792115e-7   2.7824672917600703
-1.154928670792115e-7   2.7824672917600703   2.7824672917600703
PRIMCOORD 7
2        1
13   -2.051509010463517e-8   -2.051509010463517e-8   -2.051509010463517e-8   1.1867104881200427e-9   1.1867104760539593e-9   1.1867108859926474e-9
15   1.3912336375219085   1.3912336375219085   1.3912336375219083   -1.1867104881200427e-9   -1.1867104760539593e-9   -1.1867108859926474e-9
PRIMVEC 8
2.782243590534342   2.782243590534342   -1.0854059091849303e-7
2.782243590534342   -1.0854059091849303e-7   2.782243590534342
-1.0854059091849303e-7   2.782243590534342   2.782243590534342
PRIMCOORD 8
2        1
13   -2.5859889151476506e-8   -2.5859889151476506e-8   -2.5859889151476506e-8   4.8026882741118565e-9   4.8026881614185525e-9   4.802688697082782e-9
15   1.3911217939919127   1.3911217939919127   1.3911217939919127   -4.8026882741118565e-9   -4.8026881614185525e-9   -4.802688697082782e-9
PRIMVEC 9
2.7823554411472062   2.7823554411472062   -1.1201672899885227e-7
2.7823554411472062   -1.1201672899885227e-7   2.7823554411472062
-1.1201672899885227e-7   2.7823554411472062   2.7823554411472062
PRIMCOORD 9
2        1
13   -2.318759709424746e-8   -2.318759709424746e-8   -2.318759709424746e-8   2.993749805292112e-9   2.993749823939163e-9   2.9937498517840965e-9
15   1.391177715757018   1.391177715757018   1.3911777157570182   -2.993749805292112e-9   -2.993749823939163e-9   -2.9937498517840965e-9
PRIMVEC 10
2.7824113664536383   2.7824113664536383   -1.1375479803903187e-7
2.7824113664536383   -1.1375479803903187e-7   2.7824113664536383
-1.1375479803903187e-7   2.7824113664536383   2.7824113664536383
PRIMCOORD 10
2        1
13   -2.185137046598922e-8   -2.185137046598922e-8   -2.185137046598922e-8   2.089885341335578e-9   2.0898863375417056e-9   2.08988681539279e-9
15   1.39120567663949   1.39120567663949   1.39120567663949   -2.089885341335578e-9   -2.0898863375417056e-9   -2.08988681539279e-9
PRIMVEC 11
2.782439329106854   2.782439329106854   -1.1462383255912168e-7
2.782439329106854   -1.1462383255912168e-7   2.782439329106854
-1.1462383255912168e-7   2.782439329106854   2.782439329106854
PRIMCOORD 11
2        1
13   -2.1183237001949166e-8   -2.118323700194917e-8   -2.118323700194917e-8   1.6381739790301782e-9   1.638172459179315e-9   1.6381724209996202e-9
15   1.391219657080706   1.391219657080706   1.391219657080706   -1.6381739790301782e-9   -1.638172459179315e-9   -1.6381724209996202e-9
PRIMVEC 12
2.782453310433462   2.782453310433462   -1.1505834981916659e-7
2.782453310433462   -1.1505834981916659e-7   2.782453310433462
-1.1505834981916659e-7   2.782453310433462   2.782453310433462
PRIMCOORD 12
2        1
13   -2.0849165232451404e-8   -2.0849165232451407e-8   -2.0849165232451407e-8   1.4123866618394929e-9   1.4123866561713266e-9   1.412386671958883e-9
15   1.3912266473013086   1.3912266473013086   1.3912266473013086   -1.4123866618394929e-9   -1.4123866561713266e-9   -1.412386671958883e-9
PRIMVEC 13
2.7824603010967657   2.7824603010967657   -1.1527560844918905e-7
2.7824603010967657   -1.1527560844918905e-7   2.7824603010967657
-1.1527560844918905e-7   2.7824603010967657   2.7824603010967657
PRIMCOORD 13
2        1
13   -2.06821280883331e-8   -2.06821280883331e-8   -2.06821280883331e-8   1.299517858875825e-9   1.2995181878978746e-9   1.2995177045466729e-9
15   1.3912301424116091   1.3912301424116091   1.3912301424116091   -1.299517858875825e-9   -1.2995181878978746e-9   -1.2995177045466729e-9
PRIMVEC 14
2.7824637964284182   2.7824637964284182   -1.1538423776420027e-7
2.7824637964284182   -1.1538423776420027e-7   2.7824637964284182
-1.1538423776420027e-7   2.7824637964284182   2.7824637964284182
PRIMCOORD 14
2        1
13   -2.0598609201431587e-8   -2.0598609201431587e-8   -2.0598609201431587e-8   1.2430926350297807e-9   1.2430926236101892e-9   1.243092397201094e-9
15   1.391231889966759   1.391231889966759   1.391231889966759   -1.2430926350297807e-9   -1.2430926236101892e-9   -1.243092397201094e-9
PRIMVEC 15
2.782465544094244   2.782465544094244   -1.1543855242170588e-7
2.782465544094244   -1.1543855242170588e-7   2.782465544094244
-1.1543855242170588e-7   2.782465544094244   2.782465544094244
PRIMCOORD 15
2        1
13   -2.0556849679270242e-8   -2.0556849679270242e-8   -2.0556849679270242e-8   1.2148820391576407e-9   1.214882047037635e-9   1.2148820310713848e-9
15   1.3912327637443338   1.3912327637443338   1.3912327637443338   -1.2148820391576407e-9   -1.214882047037635e-9   -1.2148820310713848e-9
PRIMVEC 16
2.782466417927157   2.782466417927157   -1.1546570975045868e-7
2.782466417927157   -1.1546570975045868e-7   2.782466417927157
-1.1546570975045868e-7   2.782466417927157   2.782466417927157
PRIMCOORD 16
2        1
13   -2.053596989851192e-8   -2.053596989851192e-8   -2.053596989851192e-8   1.200779456461292e-9   1.2007787601274602e-9   1.200779202460658e-9
15   1.3912332006331212   1.3912332006331212   1.3912332006331212   -1.200779456461292e-9   -1.2007787601274602e-9   -1.200779202460658e-9
PRIMVEC 17
2.782466854843613   2.782466854843613   -1.1547928841483508e-7
2.782466854843613   -1.1547928841483508e-7   2.782466854843613
-1.1547928841483508e-7   2.782466854843613   2.782466854843613
PRIMCOORD 17
2        1
13   -2.0525530003213342e-8   -2.0525530003213342e-8   -2.0525530003213346e-8   1.1937264179244065e-9   1.1937283941304935e-9   1.1937284100413813e-9
15   1.3912334190775146   1.3912334190775146   1.3912334190775146   -1.1937264179244065e-9   -1.1937283941304935e-9   -1.1937284100413813e-9
PRIMVEC 18
2.782467073301842   2.782467073301842   -1.1548607774702328e-7
2.782467073301842   -1.1548607774702328e-7   2.782467073301842
-1.1548607774702328e-7   2.782467073301842   2.782467073301842
PRIMCOORD 18
2        1
13   -2.0520310054334213e-8   -2.0520310054334213e-8   -2.0520310054334213e-8   1.1902026810285168e-9   1.190202976685644e-9   1.1902027458368276e-9
15   1.3912335282997115   1.3912335282997117   1.3912335282997117   -1.1902026810285168e-9   -1.190202976685644e-9   -1.1902027458368276e-9
PRIMVEC 19
2.782467182530956   2.782467182530956   -1.154894724131174e-7
2.782467182530956   -1.154894724131174e-7   2.782467182530956
-1.154894724131174e-7   2.782467182530956   2.782467182530956
PRIMCOORD 19
2        1
13   -2.051770007958718e-8   -2.051770007958718e-8   -2.051770007958718e-8   1.1884388889813865e-9   1.1884388780758102e-9   1.188438870533367e-9
15   1.3912335829108102   1.3912335829108102   1.3912335829108102   -1.1884388889813865e-9   -1.1884388780758102e-9   -1.188438870533367e-9
PRIMVEC 20
2.7824672371455126   2.7824672371455126   -1.1549116974616444e-7
2.7824672371455126   -1.1549116974616444e-7   2.7824672371455126
-1.1549116974616444e-7   2.7824672371455126   2.7824672371455126
PRIMCOORD 20
2        1
13   -2.0516395092136793e-8   -2.0516395092136793e-8   -2.0516395092136793e-8   1.187558655601113e-9   1.1875592537965751e-9   1.1875579310582875e-9
15   1.391233610216359   1.3912336102163592   1.3912336102163592   -1.187558655601113e-9   -1.1875592537965751e-9   -1.1875579310582875e-9
PRIMVEC 21
2.7824672644527912   2.7824672644527912   -1.1549201841268796e-7
2.7824672644527912   -1.1549201841268796e-7   2.7824672644527912
-1.1549201841268796e-7   2.7824672644527912   2.7824672644527912
PRIMCOORD 21
2        1
13   -2.051574259839238e-8   -2.051574259839238e-8   -2.0515742598392385e-8   1.187117119990014e-9   1.1871170920696954e-9   1.1871170672226792e-9
15   1.3912336238691336   1.3912336238691336   1.3912336238691336   -1.187117119990014e-9   -1.1871170920696954e-9   -1.1871170672226792e-9
PRIMVEC 22
2.7824672781064304   2.7824672781064304   -1.1549244274594973e-7
2.7824672781064304   -1.1549244274594973e-7   2.7824672781064304
-1.1549244274594973e-7   2.7824672781064304   2.7824672781064304
PRIMCOORD 22
2        1
13   -2.0515416351515377e-8   -2.0515416351515377e-8   -2.0515416351515377e-8   1.1868980846831439e-9   1.1868980751165517e-9   1.1868980805266794e-9
15   1.391233630695521   1.391233630695521   1.391233630695521   -1.1868980846831439e-9   -1.1868980751165517e-9   -1.1868980805266794e-9
PRIMVEC 23
2.7824672849332504   2.7824672849332504   -1.1549265491258061e-7
2.7824672849332504   -1.1549265491258061e-7   2.7824672849332504
-1.1549265491258061e-7   2.7824672849332504   2.7824672849332504
PRIMCOORD 23
2        1
13   -2.051525322807567e-8   -2.0515253228075675e-8   -2.0515253228075675e-8   1.1867859965995107e-9   1.186785944008514e-9   1.1867866390391531e-9
15   1.391233634108715   1.3912336341087148   1.3912336341087148   -1.1867859965995107e-9   -1.186785944008514e-9   -1.1867866390391531e-9
PRIMVEC 24
2.78246728834666   2.78246728834666   -1.1549276099589604e-7
2.78246728834666   -1.1549276099589604e-7   2.78246728834666
-1.1549276099589604e-7   2.78246728834666   2.78246728834666
PRIMCOORD 24
2        1
13   -2.0515171666355516e-8   -2.0515171666355516e-8   -2.051517166635552e-8   1.186730761220735e-9   1.1867307487760303e-9   1.1867308089561634e-9
15   1.3912336358153115   1.3912336358153112   1.3912336358153112   -1.186730761220735e-9   -1.1867307487760303e-9   -1.1867308089561634e-9
PRIMVEC 25
2.782467290053365   2.782467290053365   -1.1549281403755378e-7
2.782467290053365   -1.1549281403755378e-7   2.782467290053365
-1.1549281403755378e-7   2.782467290053365   2.782467290053365
PRIMCOORD 25
2        1
13   -2.0515130885495364e-8   -2.0515130885495364e-8   -2.0515130885495367e-8   1.1867054672784856e-9   1.1867054798295934e-9   1.1867054770586389e-9
15   1.3912336366686098   1.39123363666861   1.39123363666861   -1.1867054672784856e-9   -1.1867054798295934e-9   -1.1867054770586389e-9
PRIMVEC 26
2.782467290906718   2.782467290906718   -1.1549284055838262e-7
2.782467290906718   -1.1549284055838262e-7   2.782467290906718
-1.1549284055838262e-7   2.782467290906718   2.782467290906718
PRIMCOORD 26
2        1
13   -2.0515110495065275e-8   -2.0515110495065275e-8   -2.0515110495065275e-8   1.1866911941195589e-9   1.1866911887116526e-9   1.1866911835394844e-9
15   1.3912336370952592   1.3912336370952592   1.3912336370952594   -1.1866911941195589e-9   -1.1866911887116526e-9   -1.1866911835394844e-9
PRIMVEC 27
2.782467291333394   2.782467291333394   -1.1549285381879706e-7
2.782467291333394   -1.1549285381879706e-7   2.782467291333394
-1.1549285381879706e-7   2.782467291333394   2.782467291333394
PRIMCOORD 27
2        1
13   -2.051510029985022e-8   -2.051510029985022e-8   -2.051510029985022e-8   1.1866837996945797e-9   1.1866837947923482e-9   1.1866828114854406e-9
15   1.3912336373085838   1.3912336373085838   1.3912336373085838   -1.1866837996945797e-9   -1.1866837947923482e-9   -1.1866828114854406e-9
PRIMVEC 28
2.7824672915467317   2.7824672915467317   -1.1549286044900429e-7
2.7824672915467317   -1.1549286044900429e-7   2.7824672915467317
-1.1549286044900429e-7   2.7824672915467317   2.7824672915467317
PRIMCOORD 28
2        1
13   -2.0515095202242694e-8   -2.0515095202242694e-8   -2.0515095202242694e-8   1.186680989839718e-9   1.1866809739728894e-9   1.1866809784291554e-9
15   1.3912336374152463   1.3912336374152463   1.3912336374152463   -1.186680989839718e-9   -1.1866809739728894e-9   -1.1866809784291554e-9
PRIMVEC 29
2.782467291653401   2.782467291653401   -1.1549286376410789e-7
2.782467291653401   -1.1549286376410789e-7   2.782467291653401
-1.1549286376410789e-7   2.782467291653401   2.782467291653401
PRIMCOORD 29
2        1
13   -2.051509265343893e-8   -2.0515092653438933e-8   -2.0515092653438933e-8   1.1866778069568388e-9   1.18667903285143e-9   1.1866791199536643e-9
15   1.3912336374685774   1.3912336374685774   1.3912336374685774   -1.1866778069568388e-9   -1.18667903285143e-9   -1.1866791199536643e-9
PRIMVEC 30
2.7824672917067352   2.7824672917067352   -1.1549286542165967e-7
2.7824672917067352   -1.1549286542165967e-7   2.7824672917067352
-1.1549286542165967e-7   2.7824672917067352   2.7824672917067352
PRIMCOORD 30
2        1
13   -2.0515091379037048e-8   -2.0515091379037048e-8   -2.0515091379037048e-8   1.186678222777029e-9   1.1866782305253133e-9   1.1866788310380631e-9
15   1.3912336374952428   1.3912336374952425   1.3912336374952425   -1.186678222777029e-9   -1.1866782305253133e-9   -1.1866788310380631e-9
PRIMVEC 31
2.782467291733403   2.782467291733403   -1.1549286625043559e-7
2.782467291733403   -1.1549286625043559e-7   2.782467291733403
-1.1549286625043559e-7   2.782467291733403   2.782467291733403
PRIMCOORD 31
2        1
13   -2.0515090741836108e-8   -2.0515090741836108e-8   -2.0515090741836108e-8   1.186678146956849e-9   1.1866781480270825e-9   1.1866783053096762e-9
15   1.3912336375085756   1.3912336375085756   1.3912336375085756   -1.186678146956849e-9   -1.1866781480270825e-9   -1.1866783053096762e-9
PRIMVEC 32
2.782467291746736   2.782467291746736   -1.1549286666482354e-7
2.782467291746736   -1.1549286666482354e-7   2.782467291746736
-1.1549286666482354e-7   2.782467291746736   2.782467291746736
PRIMCOORD 32
2        1
13   -2.0515090423235637e-8   -2.0515090423235634e-8   -2.0515090423235634e-8   1.186677719491076e-9   1.1866777576362795e-9   1.1866772345380466e-9
15   1.3912336375152419   1.391233637515242   1.391233637515242   -1.186677719491076e-9   -1.1866777576362795e-9   -1.1866772345380466e-9
PRIMVEC 33
2.7824672917534032   2.7824672917534032   -1.1549286687201751e-7
2.7824672917534032   -1.1549286687201751e-7   2.7824672917534032
-1.1549286687201751e-7   2.7824672917534032   2.7824672917534032
PRIMCOORD 33
2        1
13   -2.0515090263935404e-8   -2.0515090263935404e-8   -2.0515090263935404e-8   1.186678555659281e-9   1.186678563829842e-9   1.1866786022605478e-9
15   1.3912336375185754   1.3912336375185754   1.3912336375185754   -1.186678555659281e-9   -1.186678563829842e-9   -1.1866786022605478e-9
PRIMVEC 34
2.7824672917567366   2.7824672917567366   -1.154928669756145e-7
2.7824672917567366   -1.154928669756145e-7   2.7824672917567366
-1.154928669756145e-7   2.7824672917567366   2.7824672917567366
PRIMCOORD 34
2        1
13   -2.0515090184285287e-8   -2.0515090184285287e-8   -2.0515090184285287e-8   1.1866768844921632e-9   1.1866768875807404e-9   1.186677499756288e-9
15   1.391233637520242   1.391233637520242   1.391233637520242   -1.1866768844921632e-9   -1.1866768875807404e-9   -1.186677499756288e-9
PRIMVEC 35
2.7824672917584037   2.7824672917584037   -1.15492867027413e-7
2.7824672917584037   -1.15492867027413e-7   2.7824672917584037
-1.15492867027413e-7   2.7824672917584037   2.7824672917584037
PRIMCOORD 35
2        1
13   -2.0515090144460226e-8   -2.0515090144460226e-8   -2.0515090144460226e-8   1.1866770513947582e-9   1.1866770385990657e-9   1.1866771851122406e-9
15   1.3912336375210752   1.3912336375210752   1.391233637521075   -1.1866770513947582e-9   -1.1866770385990657e-9   -1.1866771851122406e-9
PRIMVEC 36
2.7824672917584037   2.7824672917584037   -1.15492867027413e-7
2.7824672917584037   -1.15492867027413e-7   2.7824672917584037
-1.15492867027413e-7   2.7824672917584037   2.7824672917584037
PRIMCOORD 36
2        1
13   -2.0515090144460226e-8   -2.0515090144460226e-8   -2.0515090144460226e-8   1.1866770513947582e-9   1.1866770385990657e-9   1.1866771851122406e-9
15   1.3912336375210752   1.3912336375210752   1.391233637521075   -1.1866770513947582e-9   -1.1866770385990657e-9   -1.1866771851122406e-9
PRIMVEC 37
2.7824672917596533   2.7824672917596533   -1.1549286706626187e-7
2.7824672917596533   -1.1549286706626187e-7   2.7824672917596533
-1.1549286706626187e-7   2.7824672917596533   2.7824672917596533
PRIMCOORD 37
2        1
13   -2.051509011459143e-8   -2.051509011459143e-8   -2.051509011459143e-8   1.1866763935557899e-9   1.1866764273454747e-9   1.1866767061116761e-9
15   1.3912336375217003   1.3912336375217003   1.3912336375217   -1.1866763935557899e-9   -1.1866764273454747e-9   -1.1866767061116761e-9
PRIMVEC 38
2.7824672917596533   2.7824672917596533   -1.1549286706626187e-7
2.7824672917596533   -1.1549286706626187e-7   2.7824672917596533
-1.1549286706626187e-7   2.7824672917596533   2.7824672917596533
PRIMCOORD 38
2        1
13   -2.051509011459143e-8   -2.051509011459143e-8   -2.051509011459143e-8   1.1866763935557899e-9   1.1866764273454747e-9   1.1866767061116761e-9
15   1.3912336375217003   1.3912336375217003   1.3912336375217   -1.1866763935557899e-9   -1.1866764273454747e-9   -1.1866767061116761e-9
PRIMVEC 39
2.7824672917596533   2.7824672917596533   -1.1549286706626187e-7
2.7824672917596533   -1.1549286706626187e-7   2.7824672917596533
-1.1549286706626187e-7   2.7824672917596533   2.7824672917596533
PRIMCOORD 39
2        1
13   -2.051509011459143e-8   -2.051509011459143e-8   -2.051509011459143e-8   1.1866763935557899e-9   1.1866764273454747e-9   1.1866767061116761e-9
15   1.3912336375217003   1.3912336375217003   1.3912336375217   -1.1866763935557899e-9   -1.1866764273454747e-9   -1.1866767061116761e-9
PRIMVEC 40
2.7824672917596533   2.7824672917596533   -1.1549286706626187e-7
2.7824672917596533   -1.1549286706626187e-7   2.7824672917596533
-1.1549286706626187e-7   2.7824672917596533   2.7824672917596533
PRIMCOORD 40
2        1
13   -2.051509011459143e-8   -2.051509011459143e-8   -2.051509011459143e-8   1.1866763935557899e-9   1.1866764273454747e-9   1.1866767061116761e-9
15   1.3912336375217003   1.3912336375217003   1.3912336375217   -1.1866763935557899e-9   -1.1866764273454747e-9   -1.1866767061116761e-9
PRIMVEC 41
2.7824672917596533   2.7824672917596533   -1.1549286706626187e-7
2.7824672917596533   -1.1549286706626187e-7   2.7824672917596533
-1.1549286706626187e-7   2.7824672917596533   2.7824672917596533
PRIMCOORD 41
2        1
13   -2.051509011459143e-8   -2.051509011459143e-8   -2.051509011459143e-8   1.1866763935557899e-9   1.1866764273454747e-9   1.1866767061116761e-9
15   1.3912336375217003   1.3912336375217003   1.3912336375217   -1.1866763935557899e-9   -1.1866764273454747e-9   -1.1866767061116761e-9
PRIMVEC 42
2.7824672917596533   2.7824672917596533   -1.1549286706626187e-7
2.7824672917596533   -1.1549286706626187e-7   2.7824672917596533
-1.1549286706626187e-7   2.7824672917596533   2.7824672917596533
PRIMCOORD 42
2        1
13   -2.051509011459143e-8   -2.051509011459143e-8   -2.051509011459143e-8   1.1866763935557899e-9   1.1866764273454747e-9   1.1866767061116761e-9
15   1.3912336375217003   1.3912336375217003   1.3912336375217   -1.1866763935557899e-9   -1.1866764273454747e-9   -1.1866767061116761e-9
PRIMVEC 43
2.7824672917596533   2.7824672917596533   -1.1549286706626187e-7
2.7824672917596533   -1.1549286706626187e-7   2.7824672917596533
-1.1549286706626187e-7   2.7824672917596533   2.7824672917596533
PRIMCOORD 43
2        1
13   -2.051509011459143e-8   -2.051509011459143e-8   -2.051509011459143e-8   1.1866763935557899e-9   1.1866764273454747e-9   1.1866767061116761e-9
15   1.3912336375217003   1.3912336375217003   1.3912336375217   -1.1866763935557899e-9   -1.1866764273454747e-9   -1.1866767061116761e-9
PRIMVEC 44
2.7824672917596533   2.7824672917596533   -1.1549286706626187e-7
2.7824672917596533   -1.1549286706626187e-7   2.7824672917596533
-1.1549286706626187e-7   2.7824672917596533   2.7824672917596533
PRIMCOORD 44
2        1
13   -2.051509011459143e-8   -2.051509011459143e-8   -2.051509011459143e-8   1.1866763935557899e-9   1.1866764273454747e-9   1.1866767061116761e-9
15   1.3912336375217003   1.3912336375217003   1.3912336375217   -1.1866763935557899e-9   -1.1866764273454747e-9   -1.1866767061116761e-9
PRIMVEC 45
2.7824672917596533   2.7824672917596533   -1.1549286706626187e-7
2.7824672917596533   -1.1549286706626187e-7   2.7824672917596533
-1.1549286706626187e-7   2.7824672917596533   2.7824672917596533
PRIMCOORD 45
2        1
13   -2.051509011459143e-8   -2.051509011459143e-8   -2.051509011459143e-8   1.1866763935557899e-9   1.1866764273454747e-9   1.1866767061116761e-9
15   1.3912336375217003   1.3912336375217003   1.3912336375217   -1.1866763935557899e-9   -1.1866764273454747e-9   -1.1866767061116761e-9
PRIMVEC 46
2.7824672917596533   2.7824672917596533   -1.1549286706626187e-7
2.7824672917596533   -1.1549286706626187e-7   2.7824672917596533
-1.1549286706626187e-7   2.7824672917596533   2.7824672917596533
PRIMCOORD 46
2        1
13   -2.051509011459143e-8   -2.051509011459143e-8   -2.051509011459143e-8   1.1866763935557899e-9   1.1866764273454747e-9   1.1866767061116761e-9
15   1.3912336375217003   1.3912336375217003   1.3912336375217   -1.1866763935557899e-9   -1.1866764273454747e-9   -1.1866767061116761e-9
PRIMVEC 47
2.7824672917596533   2.7824672917596533   -1.1549286706626187e-7
2.7824672917596533   -1.1549286706626187e-7   2.7824672917596533
-1.1549286706626187e-7   2.7824672917596533   2.7824672917596533
PRIMCOORD 47
2        1
13   -2.051509011459143e-8   -2.051509011459143e-8   -2.051509011459143e-8   1.1866763935557899e-9   1.1866764273454747e-9   1.1866767061116761e-9
15   1.3912336375217003   1.3912336375217003   1.3912336375217   -1.1866763935557899e-9   -1.1866764273454747e-9   -1.1866767061116761e-9
PRIMVEC 48
2.7824672917596533   2.7824672917596533   -1.1549286706626187e-7
2.7824672917596533   -1.1549286706626187e-7   2.7824672917596533
-1.1549286706626187e-7   2.7824672917596533   2.7824672917596533
PRIMCOORD 48
2        1
13   -2.051509011459143e-8   -2.051509011459143e-8   -2.051509011459143e-8   1.1866763935557899e-9   1.1866764273454747e-9   1.1866767061116761e-9
15   1.3912336375217003   1.3912336375217003   1.3912336375217   -1.1866763935557899e-9   -1.1866764273454747e-9   -1.1866767061116761e-9
PRIMVEC 49
2.7824672917596533   2.7824672917596533   -1.1549286706626187e-7
2.7824672917596533   -1.1549286706626187e-7   2.7824672917596533
-1.1549286706626187e-7   2.7824672917596533   2.7824672917596533
PRIMCOORD 49
2        1
13   -2.051509011459143e-8   -2.051509011459143e-8   -2.051509011459143e-8   1.1866763935557899e-9   1.1866764273454747e-9   1.1866767061116761e-9
15   1.3912336375217003   1.3912336375217003   1.3912336375217   -1.1866763935557899e-9   -1.1866764273454747e-9   -1.1866767061116761e-9
PRIMVEC 50
2.7824672917596533   2.7824672917596533   -1.1549286706626187e-7
2.7824672917596533   -1.1549286706626187e-7   2.7824672917596533
-1.1549286706626187e-7   2.7824672917596533   2.7824672917596533
PRIMCOORD 50
2        1
13   -2.051509011459143e-8   -2.051509011459143e-8   -2.051509011459143e-8   1.1866763935557899e-9   1.1866764273454747e-9   1.1866767061116761e-9
15   1.3912336375217003   1.3912336375217003   1.3912336375217   -1.1866763935557899e-9   -1.1866764273454747e-9   -1.1866767061116761e-9
PRIMVEC 51
2.7824672917596533   2.7824672917596533   -1.1549286706626187e-7
2.7824672917596533   -1.1549286706626187e-7   2.7824672917596533
-1.1549286706626187e-7   2.7824672917596533   2.7824672917596533
PRIMCOORD 51
2        1
13   -2.051509011459143e-8   -2.051509011459143e-8   -2.051509011459143e-8   1.1866763935557899e-9   1.1866764273454747e-9   1.1866767061116761e-9
15   1.3912336375217003   1.3912336375217003   1.3912336375217   -1.1866763935557899e-9   -1.1866764273454747e-9   -1.1866767061116761e-9
PRIMVEC 52
2.7824672917596533   2.7824672917596533   -1.1549286706626187e-7
2.7824672917596533   -1.1549286706626187e-7   2.7824672917596533
-1.1549286706626187e-7   2.7824672917596533   2.7824672917596533
PRIMCOORD 52
2        1
13   -2.051509011459143e-8   -2.051509011459143e-8   -2.051509011459143e-8   1.1866763935557899e-9   1.1866764273454747e-9   1.1866767061116761e-9
15   1.3912336375217003   1.3912336375217003   1.3912336375217   -1.1866763935557899e-9   -1.1866764273454747e-9   -1.1866767061116761e-9
PRIMVEC 53
2.7824672917596533   2.7824672917596533   -1.1549286706626187e-7
2.7824672917596533   -1.1549286706626187e-7   2.7824672917596533
-1.1549286706626187e-7   2.7824672917596533   2.7824672917596533
PRIMCOORD 53
2        1
13   -2.051509011459143e-8   -2.051509011459143e-8   -2.051509011459143e-8   1.1866763935557899e-9   1.1866764273454747e-9   1.1866767061116761e-9
15   1.3912336375217003   1.3912336375217003   1.3912336375217   -1.1866763935557899e-9   -1.1866764273454747e-9   -1.1866767061116761e-9
PRIMVEC 54
2.7824672917596533   2.7824672917596533   -1.1549286706626187e-7
2.7824672917596533   -1.1549286706626187e-7   2.7824672917596533
-1.1549286706626187e-7   2.7824672917596533   2.7824672917596533
PRIMCOORD 54
2        1
13   -2.051509011459143e-8   -2.051509011459143e-8   -2.051509011459143e-8   1.1866763935557899e-9   1.1866764273454747e-9   1.1866767061116761e-9
15   1.3912336375217003   1.3912336375217003   1.3912336375217   -1.1866763935557899e-9   -1.1866764273454747e-9   -1.1866767061116761e-9
PRIMVEC 55
2.7824672917596533   2.7824672917596533   -1.1549286706626187e-7
2.7824672917596533   -1.1549286706626187e-7   2.7824672917596533
-1.1549286706626187e-7   2.7824672917596533   2.7824672917596533
PRIMCOORD 55
2        1
13   -2.051509011459143e-8   -2.051509011459143e-8   -2.051509011459143e-8   1.1866763935557899e-9   1.1866764273454747e-9   1.1866767061116761e-9
15   1.3912336375217003   1.3912336375217003   1.3912336375217   -1.1866763935557899e-9   -1.1866764273454747e-9   -1.1866767061116761e-9
PRIMVEC 56
2.7824672917596533   2.7824672917596533   -1.1549286706626187e-7
2.7824672917596533   -1.1549286706626187e-7   2.7824672917596533
-1.1549286706626187e-7   2.7824672917596533   2.7824672917596533
PRIMCOORD 56
2        1
13   -2.051509011459143e-8   -2.051509011459143e-8   -2.051509011459143e-8   1.1866763935557899e-9   1.1866764273454747e-9   1.1866767061116761e-9
15   1.3912336375217003   1.3912336375217003   1.3912336375217   -1.1866763935557899e-9   -1.1866764273454747e-9   -1.1866767061116761e-9
PRIMVEC 57
2.7824672917596533   2.7824672917596533   -1.1549286706626187e-7
2.7824672917596533   -1.1549286706626187e-7   2.7824672917596533
-1.1549286706626187e-7   2.7824672917596533   2.7824672917596533
PRIMCOORD 57
2        1
13   -2.051509011459143e-8   -2.051509011459143e-8   -2.051509011459143e-8   1.1866763935557899e-9   1.1866764273454747e-9   1.1866767061116761e-9
15   1.3912336375217003   1.3912336375217003   1.3912336375217   -1.1866763935557899e-9   -1.1866764273454747e-9   -1.1866767061116761e-9
PRIMVEC 58
2.7824672917596533   2.7824672917596533   -1.1549286706626187e-7
2.7824672917596533   -1.1549286706626187e-7   2.7824672917596533
-1.1549286706626187e-7   2.7824672917596533   2.7824672917596533
PRIMCOORD 58
2        1
13   -2.051509011459143e-8   -2.051509011459143e-8   -2.051509011459143e-8   1.1866763935557899e-9   1.1866764273454747e-9   1.1866767061116761e-9
15   1.3912336375217003   1.3912336375217003   1.3912336375217   -1.1866763935557899e-9   -1.1866764273454747e-9   -1.1866767061116761e-9
PRIMVEC 59
2.7824672917596533   2.7824672917596533   -1.1549286706626187e-7
2.7824672917596533   -1.1549286706626187e-7   2.7824672917596533
-1.1549286706626187e-7   2.7824672917596533   2.7824672917596533
PRIMCOORD 59
2        1
13   -2.051509011459143e-8   -2.051509011459143e-8   -2.051509011459143e-8   1.1866763935557899e-9   1.1866764273454747e-9   1.1866767061116761e-9
15   1.3912336375217003   1.3912336375217003   1.3912336375217   -1.1866763935557899e-9   -1.1866764273454747e-9   -1.1866767061116761e-9
