ANIMSTEPS  17
CRYSTAL
PRIMVEC 1
2.600001036227576   2.600001036227576   0.0
2.600001036227576   0.0   2.600001036227576
0.0   2.600001036227576   2.600001036227576
PRIMCOORD 1
2        1
13   0.0   0.0   0.0   1.1973581582021383e-17   -1.7487085252733084e-17   1.1685478418900177e-17
15   1.300000518113788   1.300000518113788   1.300000518113788   0.0   0.0   0.0
PRIMVEC 2
2.707269485225359   2.707269485225359   0.0
2.707269485225359   0.0   2.707269485225359
0.0   2.707269485225359   2.707269485225359
PRIMCOORD 2
2        1
13   0.0   0.0   0.0   -8.063280182229964e-18   4.818979728757454e-18   4.2723856306180607e-19
15   1.3536347426126796   1.3536347426126796   1.3536347426126796   0.0   0.0   0.0
PRIMVEC 3
2.7212583477697345   2.7212583477697345   0.0
2.7212583477697345   0.0   2.7212583477697345
0.0   2.7212583477697345   2.7212583477697345
PRIMCOORD 3
2        1
13   0.0   0.0   0.0   -5.9370988842921576e-18   -1.1723071615165967e-17   3.778153835458645e-18
15   1.3606291738848673   1.3606291738848673   1.3606291738848673   0.0   0.0   0.0
PRIMVEC 4
2.72561524336978   2.72561524336978   0.0
2.72561524336978   0.0   2.72561524336978
0.0   2.72561524336978   2.72561524336978
PRIMCOORD 4
2        1
13   0.0   0.0   0.0   2.2050703368988933e-17   3.793669396815302e-18   4.343320360558424e-18
15   1.36280762168489   1.36280762168489   1.36280762168489   0.0   0.0   0.0
PRIMVEC 5
2.7271831668102955   2.7271831668102955   0.0
2.7271831668102955   0.0   2.7271831668102955
0.0   2.7271831668102955   2.7271831668102955
PRIMCOORD 5
2        1
13   0.0   0.0   0.0   8.48237799913945e-20   -4.2856205033747544e-18   -8.984588633056782e-18
15   1.3635915834051477   1.3635915834051477   1.3635915834051477   0.0   0.0   0.0
PRIMVEC 6
2.7276355232200946   2.7276355232200946   0.0
2.7276355232200946   0.0   2.7276355232200946
0.0   2.7276355232200946   2.7276355232200946
PRIMCOORD 6
2        1
13   0.0   0.0   0.0   1.725069940874896e-17   1.0143510870102096e-18   -1.88667955997984e-18
15   1.3638177616100473   1.3638177616100473   1.3638177616100473   0.0   0.0   0.0
PRIMVEC 7
2.7276355232200946   2.7276355232200946   0.0
2.7276355232200946   0.0   2.7276355232200946
0.0   2.7276355232200946   2.7276355232200946
PRIMCOORD 7
2        1
13   0.0   0.0   0.0   1.612158597247847e-17   -6.843672645770613e-18   1.6635492445558953e-18
15   1.3638177616100473   1.3638177616100473   1.3638177616100473   0.0   0.0   0.0
PRIMVEC 8
2.7584586052190514   2.7584586052190514   0.0
2.7584586052190514   0.0   2.7584586052190514
0.0   2.7584586052190514   2.7584586052190514
PRIMCOORD 8
2        1
13   0.0   0.0   0.0   -6.877852596902213e-18   2.983259204302886e-18   -2.0533056448780215e-17
15   1.3792293026095257   1.3792293026095257   1.3792293026095257   0.0   0.0   0.0
PRIMVEC 9
2.763963189540751   2.763963189540751   0.0
2.763963189540751   0.0   2.763963189540751
0.0   2.763963189540751   2.763963189540751
PRIMCOORD 9
2        1
13   0.0   0.0   0.0   -1.6005014070408733e-18   1.3773146576050019e-18   3.832368901399589e-18
15   1.3819815947703755   1.3819815947703755   1.3819815947703755   0.0   0.0   0.0
PRIMVEC 10
2.765404157328898   2.765404157328898   0.0
2.765404157328898   0.0   2.765404157328898
0.0   2.765404157328898   2.765404157328898
PRIMCOORD 10
2        1
13   0.0   0.0   0.0   7.099914281808368e-18   8.544229079019403e-18   -6.090454089135706e-18
15   1.382702078664449   1.382702078664449   1.382702078664449   0.0   0.0   0.0
PRIMVEC 11
2.7711680284814877   2.7711680284814877   0.0
2.7711680284814877   0.0   2.7711680284814877
0.0   2.7711680284814877   2.7711680284814877
PRIMCOORD 11
2        1
13   0.0   0.0   0.0   4.5195409338428355e-18   -2.216623898472484e-18   -9.290176676778124e-19
15   1.3855840142407438   1.3855840142407438   1.3855840142407438   0.0   0.0   0.0
PRIMVEC 12
2.7999873842444347   2.7999873842444347   0.0
2.7999873842444347   0.0   2.7999873842444347
0.0   2.7999873842444347   2.7999873842444347
PRIMCOORD 12
2        1
13   0.0   0.0   0.0   -8.564591964028683e-18   -1.9593960944367116e-18   -1.201488636674799e-17
15   1.3999936921222174   1.3999936921222174   1.3999936921222174   0.0   0.0   0.0
PRIMVEC 13
2.796770548731766   2.796770548731766   0.0
2.796770548731766   0.0   2.796770548731766
0.0   2.796770548731766   2.796770548731766
PRIMCOORD 13
2        1
13   0.0   0.0   0.0   3.680739678268562e-18   -3.503496997132034e-18   -4.5367561827205346e-18
15   1.398385274365883   1.398385274365883   1.398385274365883   0.0   0.0   0.0
PRIMVEC 14
2.796313884022009   2.796313884022009   0.0
2.796313884022009   0.0   2.796313884022009
0.0   2.796313884022009   2.796313884022009
PRIMCOORD 14
2        1
13   0.0   0.0   0.0   7.371873418398193e-18   -5.7751156562371305e-18   -2.178996571159594e-17
15   1.3981569420110045   1.3981569420110045   1.3981569420110045   0.0   0.0   0.0
PRIMVEC 15
2.7944872251829787   2.7944872251829787   0.0
2.7944872251829787   0.0   2.7944872251829787
0.0   2.7944872251829787   2.7944872251829787
PRIMCOORD 15
2        1
13   0.0   0.0   0.0   5.095620266637369e-18   -9.93107219578268e-18   -8.548763655168309e-18
15   1.3972436125914893   1.3972436125914893   1.3972436125914893   0.0   0.0   0.0
PRIMVEC 16
2.785353930987831   2.785353930987831   0.0
2.785353930987831   0.0   2.785353930987831
0.0   2.785353930987831   2.785353930987831
PRIMCOORD 16
2        1
13   0.0   0.0   0.0   -1.2418292777862859e-18   -9.452140044296894e-18   -1.3116986532880625e-17
15   1.3926769654939155   1.3926769654939155   1.3926769654939155   0.0   0.0   0.0
PRIMVEC 17
2.7917099866521133   2.7917099866521133   0.0
2.7917099866521133   0.0   2.7917099866521133
0.0   2.7917099866521133   2.7917099866521133
PRIMCOORD 17
2        1
13   0.0   0.0   0.0   1.2758300124892745e-19   -4.546952941417979e-18   -2.0369875673630387e-17
15   1.3958549933260567   1.3958549933260567   1.3958549933260567   0.0   0.0   0.0
