ANIMSTEPS  60
CRYSTAL
PRIMVEC 1
2.600001036227576   2.600001036227576   0.0
2.600001036227576   0.0   2.600001036227576
0.0   2.600001036227576   2.600001036227576
PRIMCOORD 1
2        1
13   0.0   0.0   0.0   -5.283604188938109e-13   -5.283701877858319e-13   -5.283653184896915e-13
15   1.300000518113788   1.300000518113788   1.300000518113788   0.0   0.0   0.0
PRIMVEC 2
2.686012703689131   2.686012703689131   0.0
2.686012703689131   0.0   2.686012703689131
0.0   2.686012703689131   2.686012703689131
PRIMCOORD 2
2        1
13   0.0   0.0   0.0   -9.056764586431221e-14   -9.056138994919276e-14   -9.056489011028207e-14
15   1.3430063518445654   1.3430063518445654   1.3430063518445654   0.0   0.0   0.0
PRIMVEC 3
2.7337908460875315   2.7337908460875315   0.0
2.7337908460875315   0.0   2.7337908460875315
0.0   2.7337908460875315   2.7337908460875315
PRIMCOORD 3
2        1
13   0.0   0.0   0.0   -1.3207909325646474e-14   -1.3198941734147054e-14   -1.3213069290071631e-14
15   1.3668954230437658   1.3668954230437658   1.3668954230437658   0.0   0.0   0.0
PRIMVEC 4
2.7560365959383   2.7560365959383   0.0
2.7560365959383   0.0   2.7560365959383
0.0   2.7560365959383   2.7560365959383
PRIMCOORD 4
2        1
13   0.0   0.0   0.0   1.0050971088660838e-14   1.0036694741173591e-14   1.0039966686307125e-14
15   1.37801829796915   1.37801829796915   1.37801829796915   0.0   0.0   0.0
PRIMVEC 5
2.7657546771683634   2.7657546771683634   0.0
2.7657546771683634   0.0   2.7657546771683634
0.0   2.7657546771683634   2.7657546771683634
PRIMCOORD 5
2        1
13   0.0   0.0   0.0   1.9573709578828027e-14   1.958576794903491e-14   1.9569177901883578e-14
15   1.3828773385841817   1.3828773385841817   1.3828773385841817   0.0   0.0   0.0
PRIMVEC 6
2.7689622482115595   2.7689622482115595   0.0
2.7689622482115595   0.0   2.7689622482115595
0.0   2.7689622482115595   2.7689622482115595
PRIMCOORD 6
2        1
13   0.0   0.0   0.0   2.274202152922668e-14   2.2721470575361858e-14   2.2718189187725363e-14
15   1.3844811241057797   1.3844811241057797   1.3844811241057797   0.0   0.0   0.0
PRIMVEC 7
2.7690833979047933   2.7690833979047933   0.0
2.7690833979047933   0.0   2.7690833979047933
0.0   2.7690833979047933   2.7690833979047933
PRIMCOORD 7
2        1
13   0.0   0.0   0.0   2.2859481970890536e-14   2.28419141106008e-14   2.2847915789097464e-14
15   1.3845416989523966   1.3845416989523966   1.3845416989523966   0.0   0.0   0.0
PRIMVEC 8
2.7690833979047933   2.7690833979047933   0.0
2.7690833979047933   0.0   2.7690833979047933
0.0   2.7690833979047933   2.7690833979047933
PRIMCOORD 8
2        1
13   0.0   0.0   0.0   2.2857731292209864e-14   2.2839602518801407e-14   2.2848334397547872e-14
15   1.3845416989523966   1.3845416989523966   1.3845416989523966   0.0   0.0   0.0
PRIMVEC 9
2.771114356518176   2.771114356518176   0.0
2.771114356518176   0.0   2.771114356518176
0.0   2.771114356518176   2.771114356518176
PRIMCOORD 9
2        1
13   0.0   0.0   0.0   2.48551201532575e-14   2.4844505910815985e-14   2.486695881143727e-14
15   1.385557178259088   1.385557178259088   1.385557178259088   0.0   0.0   0.0
PRIMVEC 10
2.7713281942979657   2.7713281942979657   0.0
2.7713281942979657   0.0   2.7713281942979657
0.0   2.7713281942979657   2.7713281942979657
PRIMCOORD 10
2        1
13   0.0   0.0   0.0   2.5065868926620572e-14   2.5060964132276773e-14   2.5060380539366883e-14
15   1.3856640971489829   1.3856640971489829   1.3856640971489829   0.0   0.0   0.0
PRIMVEC 11
2.7712212754080707   2.7712212754080707   0.0
2.7712212754080707   0.0   2.7712212754080707
0.0   2.7712212754080707   2.7712212754080707
PRIMCOORD 11
2        1
13   0.0   0.0   0.0   2.4953548358820074e-14   2.4948958160491364e-14   2.4959470962094362e-14
15   1.3856106377040354   1.3856106377040354   1.3856106377040354   0.0   0.0   0.0
PRIMVEC 12
2.771274734853019   2.771274734853019   0.0
2.771274734853019   0.0   2.771274734853019
0.0   2.771274734853019   2.771274734853019
PRIMCOORD 12
2        1
13   0.0   0.0   0.0   2.5030658945532934e-14   2.5014440199712597e-14   2.499253295835092e-14
15   1.3856373674265094   1.3856373674265094   1.3856373674265094   0.0   0.0   0.0
PRIMVEC 13
2.771301464575492   2.771301464575492   0.0
2.771301464575492   0.0   2.771301464575492
0.0   2.771301464575492   2.771301464575492
PRIMCOORD 13
2        1
13   0.0   0.0   0.0   2.5039697795906687e-14   2.5038313040778253e-14   2.5032245781393048e-14
15   1.385650732287746   1.385650732287746   1.385650732287746   0.0   0.0   0.0
PRIMVEC 14
2.771314829436729   2.771314829436729   0.0
2.771314829436729   0.0   2.771314829436729
0.0   2.771314829436729   2.771314829436729
PRIMCOORD 14
2        1
13   0.0   0.0   0.0   2.5050494285314765e-14   2.503424100518384e-14   2.5063310278989472e-14
15   1.3856574147183645   1.3856574147183645   1.3856574147183645   0.0   0.0   0.0
PRIMVEC 15
2.7713215118673475   2.7713215118673475   0.0
2.7713215118673475   0.0   2.7713215118673475
0.0   2.7713215118673475   2.7713215118673475
PRIMCOORD 15
2        1
13   0.0   0.0   0.0   2.5042557904073823e-14   2.5046662343331785e-14   2.507961034642463e-14
15   1.3856607559336738   1.3856607559336738   1.3856607559336738   0.0   0.0   0.0
PRIMVEC 16
2.771324853082657   2.771324853082657   0.0
2.771324853082657   0.0   2.771324853082657
0.0   2.771324853082657   2.771324853082657
PRIMCOORD 16
2        1
13   0.0   0.0   0.0   2.5050805137325675e-14   2.5064753807231073e-14   2.5058019943555244e-14
15   1.3856624265413284   1.3856624265413284   1.3856624265413284   0.0   0.0   0.0
PRIMVEC 17
2.771326523690311   2.771326523690311   0.0
2.771326523690311   0.0   2.771326523690311
0.0   2.771326523690311   2.771326523690311
PRIMCOORD 17
2        1
13   0.0   0.0   0.0   2.5064400141664354e-14   2.5072343424901157e-14   2.505655859554475e-14
15   1.3856632618451554   1.3856632618451554   1.3856632618451554   0.0   0.0   0.0
PRIMVEC 18
2.7713273589941383   2.7713273589941383   0.0
2.7713273589941383   0.0   2.7713273589941383
0.0   2.7713273589941383   2.7713273589941383
PRIMCOORD 18
2        1
13   0.0   0.0   0.0   2.508110706867433e-14   2.5060715154793092e-14   2.505284166735387e-14
15   1.3856636794970691   1.3856636794970691   1.3856636794970691   0.0   0.0   0.0
PRIMVEC 19
2.7713277766460522   2.7713277766460522   0.0
2.7713277766460522   0.0   2.7713277766460522
0.0   2.7713277766460522   2.7713277766460522
PRIMCOORD 19
2        1
13   0.0   0.0   0.0   2.5053289378245067e-14   2.506058743408758e-14   2.506430673064374e-14
15   1.3856638883230261   1.3856638883230261   1.3856638883230261   0.0   0.0   0.0
PRIMVEC 20
2.7713279854720088   2.7713279854720088   0.0
2.7713279854720088   0.0   2.7713279854720088
0.0   2.7713279854720088   2.7713279854720088
PRIMCOORD 20
2        1
13   0.0   0.0   0.0   2.5055072822533114e-14   2.506001992635539e-14   2.5067816430888233e-14
15   1.3856639927360044   1.3856639927360044   1.3856639927360044   0.0   0.0   0.0
PRIMVEC 21
2.7713280898849875   2.7713280898849875   0.0
2.7713280898849875   0.0   2.7713280898849875
0.0   2.7713280898849875   2.7713280898849875
PRIMCOORD 21
2        1
13   0.0   0.0   0.0   2.5065779497508367e-14   2.5063316316098782e-14   2.5066518490966047e-14
15   1.3856640449424937   1.3856640449424937   1.3856640449424937   0.0   0.0   0.0
PRIMVEC 22
2.771328142091477   2.771328142091477   0.0
2.771328142091477   0.0   2.771328142091477
0.0   2.771328142091477   2.771328142091477
PRIMCOORD 22
2        1
13   0.0   0.0   0.0   2.5060106002500127e-14   2.504888826419403e-14   2.5071705739959743e-14
15   1.3856640710457384   1.3856640710457384   1.3856640710457384   0.0   0.0   0.0
PRIMVEC 23
2.771328168194721   2.771328168194721   0.0
2.771328168194721   0.0   2.771328168194721
0.0   2.771328168194721   2.771328168194721
PRIMCOORD 23
2        1
13   0.0   0.0   0.0   2.5064853186480612e-14   2.5055838713255256e-14   2.5055719685023066e-14
15   1.3856640840973604   1.3856640840973604   1.3856640840973604   0.0   0.0   0.0
PRIMVEC 24
2.7713281812463433   2.7713281812463433   0.0
2.7713281812463433   0.0   2.7713281812463433
0.0   2.7713281812463433   2.7713281812463433
PRIMCOORD 24
2        1
13   0.0   0.0   0.0   2.5050039177027487e-14   2.5059024332397708e-14   2.5062426640930308e-14
15   1.3856640906231716   1.3856640906231716   1.3856640906231716   0.0   0.0   0.0
PRIMVEC 25
2.7713281877721547   2.7713281877721547   0.0
2.7713281877721547   0.0   2.7713281877721547
0.0   2.7713281877721547   2.7713281877721547
PRIMCOORD 25
2        1
13   0.0   0.0   0.0   2.5063123194724454e-14   2.5066626098416203e-14   2.505787254676944e-14
15   1.3856640938860774   1.3856640938860774   1.3856640938860774   0.0   0.0   0.0
PRIMVEC 26
2.77132819103506   2.77132819103506   0.0
2.77132819103506   0.0   2.77132819103506
0.0   2.77132819103506   2.77132819103506
PRIMCOORD 26
2        1
13   0.0   0.0   0.0   2.5062154316803996e-14   2.504377962843525e-14   2.506549556791656e-14
15   1.38566409551753   1.38566409551753   1.38566409551753   0.0   0.0   0.0
PRIMVEC 27
2.771328192666513   2.771328192666513   0.0
2.771328192666513   0.0   2.771328192666513
0.0   2.771328192666513   2.771328192666513
PRIMCOORD 27
2        1
13   0.0   0.0   0.0   2.5074625460365635e-14   2.5067568611386888e-14   2.5068708560966976e-14
15   1.3856640963332565   1.3856640963332565   1.3856640963332565   0.0   0.0   0.0
PRIMVEC 28
2.771328193482239   2.771328193482239   0.0
2.771328193482239   0.0   2.771328193482239
0.0   2.771328193482239   2.771328193482239
PRIMCOORD 28
2        1
13   0.0   0.0   0.0   2.5047402147249227e-14   2.506174356067919e-14   2.5058563808611464e-14
15   1.3856640967411196   1.3856640967411196   1.3856640967411196   0.0   0.0   0.0
PRIMVEC 29
2.771328193890103   2.771328193890103   0.0
2.771328193890103   0.0   2.771328193890103
0.0   2.771328193890103   2.771328193890103
PRIMCOORD 29
2        1
13   0.0   0.0   0.0   2.504717134052059e-14   2.5056163434077408e-14   2.5068924182017943e-14
15   1.3856640969450515   1.3856640969450515   1.3856640969450515   0.0   0.0   0.0
PRIMVEC 30
2.7713281940940337   2.7713281940940337   0.0
2.7713281940940337   0.0   2.7713281940940337
0.0   2.7713281940940337   2.7713281940940337
PRIMCOORD 30
2        1
13   0.0   0.0   0.0   2.50592691609638e-14   2.5055165056343168e-14   2.5050659071001318e-14
15   1.3856640970470169   1.3856640970470169   1.3856640970470169   0.0   0.0   0.0
PRIMVEC 31
2.7713281941959997   2.7713281941959997   0.0
2.7713281941959997   0.0   2.7713281941959997
0.0   2.7713281941959997   2.7713281941959997
PRIMCOORD 31
2        1
13   0.0   0.0   0.0   2.5057731689201874e-14   2.5069055099244594e-14   2.5044170672097876e-14
15   1.3856640970979999   1.3856640970979999   1.3856640970979999   0.0   0.0   0.0
PRIMVEC 32
2.771328194246983   2.771328194246983   0.0
2.771328194246983   0.0   2.771328194246983
0.0   2.771328194246983   2.771328194246983
PRIMCOORD 32
2        1
13   0.0   0.0   0.0   2.5073996608250283e-14   2.505564410901861e-14   2.506439671097425e-14
15   1.3856640971234915   1.3856640971234915   1.3856640971234915   0.0   0.0   0.0
PRIMVEC 33
2.7713281942724746   2.7713281942724746   0.0
2.7713281942724746   0.0   2.7713281942724746
0.0   2.7713281942724746   2.7713281942724746
PRIMCOORD 33
2        1
13   0.0   0.0   0.0   2.507289158504236e-14   2.504776752246927e-14   2.5060685677219955e-14
15   1.3856640971362373   1.3856640971362373   1.3856640971362373   0.0   0.0   0.0
PRIMVEC 34
2.7713281942852195   2.7713281942852195   0.0
2.7713281942852195   0.0   2.7713281942852195
0.0   2.7713281942852195   2.7713281942852195
PRIMCOORD 34
2        1
13   0.0   0.0   0.0   2.5058815756879113e-14   2.5065780922094132e-14   2.5064479490776967e-14
15   1.3856640971426097   1.3856640971426097   1.3856640971426097   0.0   0.0   0.0
PRIMVEC 35
2.771328194291593   2.771328194291593   0.0
2.771328194291593   0.0   2.771328194291593
0.0   2.771328194291593   2.771328194291593
PRIMCOORD 35
2        1
13   0.0   0.0   0.0   2.5068855021958904e-14   2.5066466563862736e-14   2.506239817943131e-14
15   1.3856640971457965   1.3856640971457965   1.3856640971457965   0.0   0.0   0.0
PRIMVEC 36
2.771328194294779   2.771328194294779   0.0
2.771328194294779   0.0   2.771328194294779
0.0   2.771328194294779   2.771328194294779
PRIMCOORD 36
2        1
13   0.0   0.0   0.0   2.5066344001834555e-14   2.507559908186512e-14   2.5065026461366253e-14
15   1.3856640971473895   1.3856640971473895   1.3856640971473895   0.0   0.0   0.0
PRIMVEC 37
2.771328194296373   2.771328194296373   0.0
2.771328194296373   0.0   2.771328194296373
0.0   2.771328194296373   2.771328194296373
PRIMCOORD 37
2        1
13   0.0   0.0   0.0   2.5045677045094158e-14   2.5057978056846393e-14   2.505283622458246e-14
15   1.3856640971481864   1.3856640971481864   1.3856640971481864   0.0   0.0   0.0
PRIMVEC 38
2.771328194297169   2.771328194297169   0.0
2.771328194297169   0.0   2.771328194297169
0.0   2.771328194297169   2.771328194297169
PRIMCOORD 38
2        1
13   0.0   0.0   0.0   2.5067503893092695e-14   2.5065881096102318e-14   2.5051307380620164e-14
15   1.3856640971485845   1.3856640971485845   1.3856640971485845   0.0   0.0   0.0
PRIMVEC 39
2.771328194297568   2.771328194297568   0.0
2.771328194297568   0.0   2.771328194297568
0.0   2.771328194297568   2.771328194297568
PRIMCOORD 39
2        1
13   0.0   0.0   0.0   2.5055735695781093e-14   2.5068734872187745e-14   2.5066635579040086e-14
15   1.385664097148784   1.385664097148784   1.385664097148784   0.0   0.0   0.0
PRIMVEC 40
2.771328194297767   2.771328194297767   0.0
2.771328194297767   0.0   2.771328194297767
0.0   2.771328194297767   2.771328194297767
PRIMCOORD 40
2        1
13   0.0   0.0   0.0   2.5060739301617997e-14   2.5050389137118175e-14   2.5059644609218976e-14
15   1.3856640971488834   1.3856640971488834   1.3856640971488834   0.0   0.0   0.0
PRIMVEC 41
2.7713281942978667   2.7713281942978667   0.0
2.7713281942978667   0.0   2.7713281942978667
0.0   2.7713281942978667   2.7713281942978667
PRIMCOORD 41
2        1
13   0.0   0.0   0.0   2.5044796488396542e-14   2.5060588845090583e-14   2.506251612632956e-14
15   1.3856640971489333   1.3856640971489333   1.3856640971489333   0.0   0.0   0.0
PRIMVEC 42
2.771328194297916   2.771328194297916   0.0
2.771328194297916   0.0   2.771328194297916
0.0   2.771328194297916   2.771328194297916
PRIMCOORD 42
2        1
13   0.0   0.0   0.0   2.506696130361934e-14   2.504826640355438e-14   2.5070948375335368e-14
15   1.385664097148958   1.385664097148958   1.385664097148958   0.0   0.0   0.0
PRIMVEC 43
2.771328194297941   2.771328194297941   0.0
2.771328194297941   0.0   2.771328194297941
0.0   2.771328194297941   2.771328194297941
PRIMCOORD 43
2        1
13   0.0   0.0   0.0   2.5062188943762898e-14   2.506742458286876e-14   2.5058917715891172e-14
15   1.3856640971489704   1.3856640971489704   1.3856640971489704   0.0   0.0   0.0
PRIMVEC 44
2.771328194297953   2.771328194297953   0.0
2.771328194297953   0.0   2.771328194297953
0.0   2.771328194297953   2.771328194297953
PRIMCOORD 44
2        1
13   0.0   0.0   0.0   2.5057522699285144e-14   2.5072426301122653e-14   2.5049160414378398e-14
15   1.3856640971489764   1.3856640971489764   1.3856640971489764   0.0   0.0   0.0
PRIMVEC 45
2.7713281942979595   2.7713281942979595   0.0
2.7713281942979595   0.0   2.7713281942979595
0.0   2.7713281942979595   2.7713281942979595
PRIMCOORD 45
2        1
13   0.0   0.0   0.0   2.5057258939154796e-14   2.5077481320409676e-14   2.5059407716827282e-14
15   1.3856640971489798   1.3856640971489798   1.3856640971489798   0.0   0.0   0.0
PRIMVEC 46
2.771328194297963   2.771328194297963   0.0
2.771328194297963   0.0   2.771328194297963
0.0   2.771328194297963   2.771328194297963
PRIMCOORD 46
2        1
13   0.0   0.0   0.0   2.506467162940411e-14   2.505912526148918e-14   2.5047835415307814e-14
15   1.3856640971489815   1.3856640971489815   1.3856640971489815   0.0   0.0   0.0
PRIMVEC 47
2.7713281942979644   2.7713281942979644   0.0
2.7713281942979644   0.0   2.7713281942979644
0.0   2.7713281942979644   2.7713281942979644
PRIMCOORD 47
2        1
13   0.0   0.0   0.0   2.5082494366092162e-14   2.506707179705871e-14   2.506762940936149e-14
15   1.3856640971489822   1.3856640971489822   1.3856640971489822   0.0   0.0   0.0
PRIMVEC 48
2.771328194297965   2.771328194297965   0.0
2.771328194297965   0.0   2.771328194297965
0.0   2.771328194297965   2.771328194297965
PRIMCOORD 48
2        1
13   0.0   0.0   0.0   2.5065016703999486e-14   2.5068072106488388e-14   2.5053190792042143e-14
15   1.3856640971489824   1.3856640971489824   1.3856640971489824   0.0   0.0   0.0
PRIMVEC 49
2.7713281942979653   2.7713281942979653   0.0
2.7713281942979653   0.0   2.7713281942979653
0.0   2.7713281942979653   2.7713281942979653
PRIMCOORD 49
2        1
13   0.0   0.0   0.0   2.506780530179011e-14   2.5075717105545705e-14   2.5045910096143208e-14
15   1.3856640971489826   1.3856640971489826   1.3856640971489826   0.0   0.0   0.0
PRIMVEC 50
2.7713281942979653   2.7713281942979653   0.0
2.7713281942979653   0.0   2.7713281942979653
0.0   2.7713281942979653   2.7713281942979653
PRIMCOORD 50
2        1
13   0.0   0.0   0.0   2.506167072777038e-14   2.5065830239166654e-14   2.5045642453820878e-14
15   1.3856640971489826   1.3856640971489826   1.3856640971489826   0.0   0.0   0.0
PRIMVEC 51
2.7713281942979657   2.7713281942979657   0.0
2.7713281942979657   0.0   2.7713281942979657
0.0   2.7713281942979657   2.7713281942979657
PRIMCOORD 51
2        1
13   0.0   0.0   0.0   2.505473040245311e-14   2.5067357587904064e-14   2.506877193708375e-14
15   1.3856640971489829   1.3856640971489829   1.3856640971489829   0.0   0.0   0.0
PRIMVEC 52
2.7713281942979657   2.7713281942979657   0.0
2.7713281942979657   0.0   2.7713281942979657
0.0   2.7713281942979657   2.7713281942979657
PRIMCOORD 52
2        1
13   0.0   0.0   0.0   2.5066280096131185e-14   2.5066060450114655e-14   2.5066422779473238e-14
15   1.3856640971489829   1.3856640971489829   1.3856640971489829   0.0   0.0   0.0
PRIMVEC 53
2.7713281942979657   2.7713281942979657   0.0
2.7713281942979657   0.0   2.7713281942979657
0.0   2.7713281942979657   2.7713281942979657
PRIMCOORD 53
2        1
13   0.0   0.0   0.0   2.5065308898991586e-14   2.506667920736459e-14   2.506499844533262e-14
15   1.3856640971489829   1.3856640971489829   1.3856640971489829   0.0   0.0   0.0
PRIMVEC 54
2.7713281942979657   2.7713281942979657   0.0
2.7713281942979657   0.0   2.7713281942979657
0.0   2.7713281942979657   2.7713281942979657
PRIMCOORD 54
2        1
13   0.0   0.0   0.0   2.5060986872976028e-14   2.506401073391415e-14   2.507065603303542e-14
15   1.3856640971489829   1.3856640971489829   1.3856640971489829   0.0   0.0   0.0
PRIMVEC 55
2.7713281942979657   2.7713281942979657   0.0
2.7713281942979657   0.0   2.7713281942979657
0.0   2.7713281942979657   2.7713281942979657
PRIMCOORD 55
2        1
13   0.0   0.0   0.0   2.5066445716380122e-14   2.5076083787578732e-14   2.506894948199065e-14
15   1.3856640971489829   1.3856640971489829   1.3856640971489829   0.0   0.0   0.0
PRIMVEC 56
2.7713281942979657   2.7713281942979657   0.0
2.7713281942979657   0.0   2.7713281942979657
0.0   2.7713281942979657   2.7713281942979657
PRIMCOORD 56
2        1
13   0.0   0.0   0.0   2.5066445716380122e-14   2.5076083787578732e-14   2.506894948199065e-14
15   1.3856640971489829   1.3856640971489829   1.3856640971489829   0.0   0.0   0.0
PRIMVEC 57
2.7713281942979657   2.7713281942979657   0.0
2.7713281942979657   0.0   2.7713281942979657
0.0   2.7713281942979657   2.7713281942979657
PRIMCOORD 57
2        1
13   0.0   0.0   0.0   2.5066445716380122e-14   2.5076083787578732e-14   2.506894948199065e-14
15   1.3856640971489829   1.3856640971489829   1.3856640971489829   0.0   0.0   0.0
PRIMVEC 58
2.7713281942979657   2.7713281942979657   0.0
2.7713281942979657   0.0   2.7713281942979657
0.0   2.7713281942979657   2.7713281942979657
PRIMCOORD 58
2        1
13   0.0   0.0   0.0   2.5066445716380122e-14   2.5076083787578732e-14   2.506894948199065e-14
15   1.3856640971489829   1.3856640971489829   1.3856640971489829   0.0   0.0   0.0
PRIMVEC 59
2.7713281942979657   2.7713281942979657   0.0
2.7713281942979657   0.0   2.7713281942979657
0.0   2.7713281942979657   2.7713281942979657
PRIMCOORD 59
2        1
13   0.0   0.0   0.0   2.5066445716380122e-14   2.5076083787578732e-14   2.506894948199065e-14
15   1.3856640971489829   1.3856640971489829   1.3856640971489829   0.0   0.0   0.0
PRIMVEC 60
2.7713281942979657   2.7713281942979657   0.0
2.7713281942979657   0.0   2.7713281942979657
0.0   2.7713281942979657   2.7713281942979657
PRIMCOORD 60
2        1
13   0.0   0.0   0.0   2.5066445716380122e-14   2.5076083787578732e-14   2.506894948199065e-14
15   1.3856640971489829   1.3856640971489829   1.3856640971489829   0.0   0.0   0.0
