ANIMSTEPS  59
CRYSTAL
PRIMVEC 1
2.600001036227576   2.600001036227576   0.0
2.600001036227576   0.0   2.600001036227576
0.0   2.600001036227576   2.600001036227576
PRIMCOORD 1
2        1
13   0.0   0.0   0.0   -4.881452457949885e-13   -4.881496568566239e-13   -4.881509291807442e-13
15   1.300000518113788   1.300000518113788   1.300000518113788   0.0   0.0   0.0
PRIMVEC 2
2.688633224617884   2.688633224617884   0.0
2.688633224617884   0.0   2.688633224617884
0.0   2.688633224617884   2.688633224617884
PRIMCOORD 2
2        1
13   0.0   0.0   0.0   -7.761213088547462e-14   -7.76018790374517e-14   -7.760511577328701e-14
15   1.344316612308942   1.344316612308942   1.344316612308942   0.0   0.0   0.0
PRIMVEC 3
2.7402583719696594   2.7402583719696594   0.0
2.7402583719696594   0.0   2.7402583719696594
0.0   2.7402583719696594   2.7402583719696594
PRIMCOORD 3
2        1
13   0.0   0.0   0.0   -5.5747946026132705e-15   -5.572884758738583e-15   -5.56162827588376e-15
15   1.3701291859848297   1.3701291859848297   1.3701291859848297   0.0   0.0   0.0
PRIMVEC 4
2.7667986903906816   2.7667986903906816   0.0
2.7667986903906816   0.0   2.7667986903906816
0.0   2.7667986903906816   2.7667986903906816
PRIMCOORD 4
2        1
13   0.0   0.0   0.0   1.880237493163894e-14   1.8793787089967063e-14   1.8798474579918296e-14
15   1.3833993451953408   1.3833993451953408   1.3833993451953408   0.0   0.0   0.0
PRIMVEC 5
2.7775881501792776   2.7775881501792776   0.0
2.7775881501792776   0.0   2.7775881501792776
0.0   2.7775881501792776   2.7775881501792776
PRIMCOORD 5
2        1
13   0.0   0.0   0.0   -4.924615862365834e-9   -4.924615862730015e-9   -4.9246158391882335e-9
15   1.3887940750896388   1.3887940750896388   1.3887940750896388   4.924615862365834e-9   4.924615862730015e-9   4.9246158391882335e-9
PRIMVEC 6
2.7820198893225174   2.7820198893225174   -1.0158831498466775e-7
2.7820198893225174   -1.0158831498466775e-7   2.7820198893225174
-1.0158831498466775e-7   2.7820198893225174   2.7820198893225174
PRIMCOORD 6
2        1
13   -3.1203828575486596e-8   -3.120382857548659e-8   -3.120382857548659e-8   8.423693194122168e-9   8.423692272736464e-9   8.423692599581522e-9
15   1.3910099504680085   1.3910099504680085   1.3910099504680085   -8.423693194122168e-9   -8.423692272736464e-9   -8.423692599581522e-9
PRIMVEC 7
2.782467291773663   2.782467291773663   -1.1549286742656772e-7
2.782467291773663   -1.1549286742656772e-7   2.782467291773663
-1.1549286742656772e-7   2.782467291773663   2.782467291773663
PRIMCOORD 7
2        1
13   -2.0515091321174738e-8   -2.051509132117474e-8   -2.051509132117474e-8   1.1867106908349744e-9   1.1867121843228925e-9   1.1867105631093e-9
15   1.3912336375287058   1.3912336375287058   1.3912336375287058   -1.1867106908349744e-9   -1.1867121843228925e-9   -1.1867105631093e-9
PRIMVEC 8
2.78224359054809   2.78224359054809   -1.0854059120561773e-7
2.78224359054809   -1.0854059120561773e-7   2.78224359054809
-1.0854059120561773e-7   2.78224359054809   2.78224359054809
PRIMCOORD 8
2        1
13   -2.585988981305223e-8   -2.585988981305223e-8   -2.585988981305223e-8   4.80268810151139e-9   4.802688061857904e-9   4.8026880320913436e-9
15   1.391121793998787   1.391121793998787   1.391121793998787   -4.80268810151139e-9   -4.802688061857904e-9   -4.8026880320913436e-9
PRIMVEC 9
2.782355441160876   2.782355441160876   -1.1201672931609272e-7
2.782355441160876   -1.1201672931609272e-7   2.782355441160876
-1.1201672931609272e-7   2.782355441160876   2.782355441160876
PRIMCOORD 9
2        1
13   -2.3187598033293877e-8   -2.3187598033293877e-8   -2.3187598033293877e-8   2.9937500069422973e-9   2.9937500055927335e-9   2.993749957811163e-9
15   1.3911777157638539   1.3911777157638539   1.3911777157638539   -2.9937500069422973e-9   -2.9937500055927335e-9   -2.993749957811163e-9
PRIMVEC 10
2.7824113664672696   2.7824113664672696   -1.1375479837133023e-7
2.7824113664672696   -1.1375479837133023e-7   2.7824113664672696
-1.1375479837133023e-7   2.7824113664672696   2.7824113664672696
PRIMCOORD 10
2        1
13   -2.1851371543779403e-8   -2.1851371543779403e-8   -2.1851371543779403e-8   2.0898875433749034e-9   2.089887520524942e-9   2.0898874969529645e-9
15   1.3912056766463068   1.3912056766463068   1.3912056766463068   -2.0898875433749034e-9   -2.089887520524942e-9   -2.0898874969529645e-9
PRIMVEC 11
2.782439329120466   2.782439329120466   -1.1462383289894898e-7
2.782439329120466   -1.1462383289894898e-7   2.782439329120466
-1.1462383289894898e-7   2.782439329120466   2.782439329120466
PRIMCOORD 11
2        1
13   -2.1183238149113346e-8   -2.1183238149113346e-8   -2.1183238149113346e-8   1.6381732841125072e-9   1.638173265993755e-9   1.6381735231557274e-9
15   1.391219657087513   1.391219657087513   1.391219657087513   -1.6381732841125072e-9   -1.638173265993755e-9   -1.6381735231557274e-9
PRIMVEC 12
2.7824533104470643   2.7824533104470643   -1.1505835016275836e-7
2.7824533104470643   -1.1505835016275836e-7   2.7824533104470643
-1.1505835016275836e-7   2.7824533104470643   2.7824533104470643
PRIMCOORD 12
2        1
13   -2.084916641430311e-8   -2.084916641430311e-8   -2.084916641430311e-8   1.4123855994566145e-9   1.4123875274441505e-9   1.4123875047247336e-9
15   1.3912266473081112   1.3912266473081112   1.3912266473081114   -1.4123855994566145e-9   -1.4123875274441505e-9   -1.4123875047247336e-9
PRIMVEC 13
2.782460301110364   2.782460301110364   -1.1527560879466304e-7
2.782460301110364   -1.1527560879466304e-7   2.782460301110364
-1.1527560879466304e-7   2.782460301110364   2.782460301110364
PRIMCOORD 13
2        1
13   -2.068212928752869e-8   -2.068212928752869e-8   -2.068212928752869e-8   1.2995185283059132e-9   1.2995184973433608e-9   1.299518384609402e-9
15   1.391230142418409   1.391230142418409   1.3912301424184088   -1.2995185283059132e-9   -1.2995184973433608e-9   -1.299518384609402e-9
PRIMVEC 14
2.782463796442013   2.782463796442013   -1.1538423811061538e-7
2.782463796442013   -1.1538423811061538e-7   2.782463796442013
-1.1538423811061538e-7   2.782463796442013   2.782463796442013
PRIMCOORD 14
2        1
13   -2.059861040929915e-8   -2.0598610409299154e-8   -2.0598610409299154e-8   1.2430925995080166e-9   1.2430926364093087e-9   1.2430920621655278e-9
15   1.3912318899735576   1.3912318899735574   1.3912318899735574   -1.2430925995080166e-9   -1.2430926364093087e-9   -1.2430920621655278e-9
PRIMVEC 15
2.7824655441078376   2.7824655441078376   -1.1543855276859156e-7
2.7824655441078376   -1.1543855276859156e-7   2.7824655441078376
-1.1543855276859156e-7   2.7824655441078376   2.7824655441078376
PRIMCOORD 15
2        1
13   -2.05568508914738e-8   -2.0556850891473807e-8   -2.0556850891473807e-8   1.2148818700394837e-9   1.2148832553766165e-9   1.2148833234438769e-9
15   1.3912327637511317   1.3912327637511317   1.3912327637511317   -1.2148818700394837e-9   -1.2148832553766165e-9   -1.2148833234438769e-9
PRIMVEC 16
2.7824664179407503   2.7824664179407503   -1.1546571009757963e-7
2.7824664179407503   -1.1546571009757963e-7   2.7824664179407503
-1.1546571009757963e-7   2.7824664179407503   2.7824664179407503
PRIMCOORD 16
2        1
13   -2.053597111288349e-8   -2.053597111288349e-8   -2.053597111288349e-8   1.2007799315561248e-9   1.2007799195028815e-9   1.2007799083703147e-9
15   1.3912332006399188   1.3912332006399188   1.3912332006399188   -1.2007799315561248e-9   -1.2007799195028815e-9   -1.2007799083703147e-9
PRIMVEC 17
2.7824668548572067   2.7824668548572067   -1.1547928876207367e-7
2.7824668548572067   -1.1547928876207367e-7   2.7824668548572067
-1.1547928876207367e-7   2.7824668548572067   2.7824668548572067
PRIMCOORD 17
2        1
13   -2.0525531218668918e-8   -2.0525531218668915e-8   -2.0525531218668915e-8   1.1937290928090111e-9   1.1937290425145788e-9   1.1937291382996232e-9
15   1.3912334190843125   1.3912334190843125   1.3912334190843125   -1.1937290928090111e-9   -1.1937290425145788e-9   -1.1937291382996232e-9
PRIMVEC 18
2.7824670733154346   2.7824670733154346   -1.154860780943207e-7
2.7824670733154346   -1.154860780943207e-7   2.7824670733154346
-1.154860780943207e-7   2.7824670733154346   2.7824670733154346
PRIMCOORD 18
2        1
13   -2.0520311270331777e-8   -2.0520311270331774e-8   -2.0520311270331774e-8   1.1902031093548799e-9   1.1902030859098435e-9   1.190203125902135e-9
15   1.3912335283065091   1.3912335283065091   1.3912335283065091   -1.1902031093548799e-9   -1.1902030859098435e-9   -1.190203125902135e-9
PRIMVEC 19
2.782467182544549   2.782467182544549   -1.154894727604442e-7
2.782467182544549   -1.154894727604442e-7   2.782467182544549
-1.154894727604442e-7   2.782467182544549   2.782467182544549
PRIMCOORD 19
2        1
13   -2.0517701295855747e-8   -2.0517701295855744e-8   -2.0517701295855744e-8   1.1884402395588157e-9   1.188440234777184e-9   1.1884402209963345e-9
15   1.3912335829176075   1.3912335829176075   1.3912335829176072   -1.1884402395588157e-9   -1.188440234777184e-9   -1.1884402209963345e-9
PRIMVEC 20
2.782467237159106   2.782467237159106   -1.1549117009350597e-7
2.782467237159106   -1.1549117009350597e-7   2.782467237159106
-1.1549117009350597e-7   2.782467237159106   2.782467237159106
PRIMCOORD 20
2        1
13   -2.051639630854087e-8   -2.051639630854087e-8   -2.0516396308540867e-8   1.1875596732962099e-9   1.1875596633753205e-9   1.1875597220034068e-9
15   1.3912336102231568   1.3912336102231568   1.391233610223157   -1.1875596732962099e-9   -1.1875596633753205e-9   -1.1875597220034068e-9
PRIMVEC 21
2.782467264466384   2.782467264466384   -1.1549201876003685e-7
2.782467264466384   -1.1549201876003685e-7   2.782467264466384
-1.1549201876003685e-7   2.782467264466384   2.782467264466384
PRIMCOORD 21
2        1
13   -2.0515743814864205e-8   -2.0515743814864205e-8   -2.0515743814864205e-8   1.1871189128214004e-9   1.187118885500218e-9   1.1871188098142601e-9
15   1.3912336238759313   1.3912336238759313   1.3912336238759313   -1.1871189128214004e-9   -1.187118885500218e-9   -1.1871188098142601e-9
PRIMVEC 22
2.7824672781200235   2.7824672781200235   -1.1549244309330229e-7
2.7824672781200235   -1.1549244309330229e-7   2.7824672781200235
-1.1549244309330229e-7   2.7824672781200235   2.7824672781200235
PRIMCOORD 22
2        1
13   -2.0515417568021075e-8   -2.0515417568021075e-8   -2.0515417568021075e-8   1.1868988861200367e-9   1.1868989210399417e-9   1.186898261189807e-9
15   1.3912336307023185   1.3912336307023185   1.3912336307023183   -1.1868988861200367e-9   -1.1868989210399417e-9   -1.186898261189807e-9
PRIMVEC 23
2.782467284946843   2.782467284946843   -1.15492655259935e-7
2.782467284946843   -1.15492655259935e-7   2.782467284946843
-1.15492655259935e-7   2.782467284946843   2.782467284946843
PRIMCOORD 23
2        1
13   -2.0515254444598303e-8   -2.0515254444598303e-8   -2.0515254444598303e-8   1.1867876806369425e-9   1.1867876790555973e-9   1.1867871088878738e-9
15   1.391233634115512   1.391233634115512   1.391233634115512   -1.1867876806369425e-9   -1.1867876790555973e-9   -1.1867871088878738e-9
PRIMVEC 24
2.782467288360253   2.782467288360253   -1.1549276134325137e-7
2.782467288360253   -1.1549276134325137e-7   2.782467288360253
-1.1549276134325137e-7   2.782467288360253   2.782467288360253
PRIMCOORD 24
2        1
13   -2.0515172882886625e-8   -2.0515172882886622e-8   -2.0515172882886622e-8   1.186732644156045e-9   1.1867327008689215e-9   1.1867320971189549e-9
15   1.391233635822109   1.391233635822109   1.391233635822109   -1.186732644156045e-9   -1.1867327008689215e-9   -1.1867320971189549e-9
PRIMVEC 25
2.782467290066958   2.782467290066958   -1.1549281438490955e-7
2.782467290066958   -1.1549281438490955e-7   2.782467290066958
-1.1549281438490955e-7   2.782467290066958   2.782467290066958
PRIMCOORD 25
2        1
13   -2.0515132102030705e-8   -2.0515132102030705e-8   -2.0515132102030705e-8   1.1867056310159007e-9   1.1867056432069949e-9   1.1867051738517642e-9
15   1.3912336366754074   1.3912336366754074   1.3912336366754074   -1.1867056310159007e-9   -1.1867056432069949e-9   -1.1867051738517642e-9
PRIMVEC 26
2.78246729092031   2.78246729092031   -1.1549284090573865e-7
2.78246729092031   -1.1549284090573865e-7   2.78246729092031
-1.1549284090573865e-7   2.78246729092031   2.78246729092031
PRIMCOORD 26
2        1
13   -2.051511171160272e-8   -2.0515111711602723e-8   -2.0515111711602723e-8   1.1866917082213161e-9   1.1866917227831286e-9   1.1866917284718583e-9
15   1.3912336371020566   1.3912336371020564   1.3912336371020564   -1.1866917082213161e-9   -1.1866917227831286e-9   -1.1866917284718583e-9
PRIMVEC 27
2.7824672913469866   2.7824672913469866   -1.1549285416615316e-7
2.7824672913469866   -1.1549285416615316e-7   2.7824672913469866
-1.1549285416615316e-7   2.7824672913469866   2.7824672913469866
PRIMCOORD 27
2        1
13   -2.051510151638873e-8   -2.051510151638873e-8   -2.051510151638873e-8   1.186684865839418e-9   1.1866849147927771e-9   1.1866851272868523e-9
15   1.3912336373153813   1.3912336373153813   1.3912336373153813   -1.186684865839418e-9   -1.1866849147927771e-9   -1.1866851272868523e-9
PRIMVEC 28
2.7824672915603244   2.7824672915603244   -1.1549286079636044e-7
2.7824672915603244   -1.1549286079636044e-7   2.7824672915603244
-1.1549286079636044e-7   2.7824672915603244   2.7824672915603244
PRIMCOORD 28
2        1
13   -2.051509641878173e-8   -2.051509641878173e-8   -2.051509641878173e-8   1.1866811822368525e-9   1.1866813483118785e-9   1.1866813595447282e-9
15   1.3912336374220433   1.391233637422043   1.391233637422043   -1.1866811822368525e-9   -1.1866813483118785e-9   -1.1866813595447282e-9
PRIMVEC 29
2.7824672916669937   2.7824672916669937   -1.1549286411146408e-7
2.7824672916669937   -1.1549286411146408e-7   2.7824672916669937
-1.1549286411146408e-7   2.7824672916669937   2.7824672916669937
PRIMCOORD 29
2        1
13   -2.0515093869978235e-8   -2.0515093869978235e-8   -2.0515093869978235e-8   1.1866800877631825e-9   1.1866801127533823e-9   1.1866800916743344e-9
15   1.3912336374753744   1.3912336374753744   1.3912336374753744   -1.1866800877631825e-9   -1.1866801127533823e-9   -1.1866800916743344e-9
PRIMVEC 30
2.7824672917203284   2.7824672917203284   -1.154928657690159e-7
2.7824672917203284   -1.154928657690159e-7   2.7824672917203284
-1.154928657690159e-7   2.7824672917203284   2.7824672917203284
PRIMCOORD 30
2        1
13   -2.0515092595576488e-8   -2.0515092595576488e-8   -2.0515092595576488e-8   1.186678733875344e-9   1.1866786713578618e-9   1.186678632011114e-9
15   1.3912336375020402   1.3912336375020402   1.3912336375020404   -1.186678733875344e-9   -1.1866786713578618e-9   -1.186678632011114e-9
PRIMVEC 31
2.782467291746996   2.782467291746996   -1.154928665977918e-7
2.782467291746996   -1.154928665977918e-7   2.782467291746996
-1.154928665977918e-7   2.782467291746996   2.782467291746996
PRIMCOORD 31
2        1
13   -2.0515091958375618e-8   -2.051509195837561e-8   -2.051509195837561e-8   1.1866800011280712e-9   1.1866784195898463e-9   1.1866787828677833e-9
15   1.3912336375153733   1.3912336375153733   1.3912336375153733   -1.1866800011280712e-9   -1.1866784195898463e-9   -1.1866787828677833e-9
PRIMVEC 32
2.7824672917603293   2.7824672917603293   -1.1549286701217976e-7
2.7824672917603293   -1.1549286701217976e-7   2.7824672917603293
-1.1549286701217976e-7   2.7824672917603293   2.7824672917603293
PRIMCOORD 32
2        1
13   -2.0515091639775176e-8   -2.0515091639775176e-8   -2.0515091639775176e-8   1.1866780205148856e-9   1.1866780358389463e-9   1.1866780254896043e-9
15   1.3912336375220395   1.3912336375220395   1.3912336375220395   -1.1866780205148856e-9   -1.1866780358389463e-9   -1.1866780254896043e-9
PRIMVEC 33
2.782467291766996   2.782467291766996   -1.1549286721937375e-7
2.782467291766996   -1.1549286721937375e-7   2.782467291766996
-1.1549286721937375e-7   2.782467291766996   2.782467291766996
PRIMCOORD 33
2        1
13   -2.0515091480474957e-8   -2.0515091480474954e-8   -2.0515091480474954e-8   1.1866787615541807e-9   1.1866787198374904e-9   1.1866795204685008e-9
15   1.3912336375253727   1.3912336375253722   1.3912336375253722   -1.1866787615541807e-9   -1.1866787198374904e-9   -1.1866795204685008e-9
PRIMVEC 34
2.7824672917703293   2.7824672917703293   -1.1549286732297073e-7
2.7824672917703293   -1.1549286732297073e-7   2.7824672917703293
-1.1549286732297073e-7   2.7824672917703293   2.7824672917703293
PRIMCOORD 34
2        1
13   -2.0515091400824843e-8   -2.0515091400824843e-8   -2.0515091400824846e-8   1.186677477262162e-9   1.1866774589038483e-9   1.186677473113888e-9
15   1.391233637527039   1.3912336375270389   1.3912336375270389   -1.186677477262162e-9   -1.1866774589038483e-9   -1.186677473113888e-9
PRIMVEC 35
2.782467291771996   2.782467291771996   -1.1549286737476923e-7
2.782467291771996   -1.1549286737476923e-7   2.782467291771996
-1.1549286737476923e-7   2.782467291771996   2.782467291771996
PRIMCOORD 35
2        1
13   -2.051509136099979e-8   -2.051509136099979e-8   -2.051509136099979e-8   1.1866771300855645e-9   1.1866771681539276e-9   1.1866771200490686e-9
15   1.3912336375278724   1.3912336375278722   1.3912336375278722   -1.1866771300855645e-9   -1.1866771681539276e-9   -1.1866771200490686e-9
PRIMVEC 36
2.782467291771996   2.782467291771996   -1.1549286737476923e-7
2.782467291771996   -1.1549286737476923e-7   2.782467291771996
-1.1549286737476923e-7   2.782467291771996   2.782467291771996
PRIMCOORD 36
2        1
13   -2.051509136099979e-8   -2.051509136099979e-8   -2.051509136099979e-8   1.1866771300855645e-9   1.1866771681539276e-9   1.1866771200490686e-9
15   1.3912336375278724   1.3912336375278722   1.3912336375278722   -1.1866771300855645e-9   -1.1866771681539276e-9   -1.1866771200490686e-9
PRIMVEC 37
2.782467291773246   2.782467291773246   -1.154928674136181e-7
2.782467291773246   -1.154928674136181e-7   2.782467291773246
-1.154928674136181e-7   2.782467291773246   2.782467291773246
PRIMCOORD 37
2        1
13   -2.0515091331130998e-8   -2.0515091331131e-8   -2.0515091331131e-8   1.1866779824424852e-9   1.1866779534042178e-9   1.1866778762311728e-9
15   1.3912336375284973   1.3912336375284973   1.3912336375284973   -1.1866779824424852e-9   -1.1866779534042178e-9   -1.1866778762311728e-9
PRIMVEC 38
2.782467291773246   2.782467291773246   -1.154928674136181e-7
2.782467291773246   -1.154928674136181e-7   2.782467291773246
-1.154928674136181e-7   2.782467291773246   2.782467291773246
PRIMCOORD 38
2        1
13   -2.0515091331130998e-8   -2.0515091331131e-8   -2.0515091331131e-8   1.1866779824424852e-9   1.1866779534042178e-9   1.1866778762311728e-9
15   1.3912336375284973   1.3912336375284973   1.3912336375284973   -1.1866779824424852e-9   -1.1866779534042178e-9   -1.1866778762311728e-9
PRIMVEC 39
2.782467291773246   2.782467291773246   -1.154928674136181e-7
2.782467291773246   -1.154928674136181e-7   2.782467291773246
-1.154928674136181e-7   2.782467291773246   2.782467291773246
PRIMCOORD 39
2        1
13   -2.0515091331130998e-8   -2.0515091331131e-8   -2.0515091331131e-8   1.1866779824424852e-9   1.1866779534042178e-9   1.1866778762311728e-9
15   1.3912336375284973   1.3912336375284973   1.3912336375284973   -1.1866779824424852e-9   -1.1866779534042178e-9   -1.1866778762311728e-9
PRIMVEC 40
2.782467291773246   2.782467291773246   -1.154928674136181e-7
2.782467291773246   -1.154928674136181e-7   2.782467291773246
-1.154928674136181e-7   2.782467291773246   2.782467291773246
PRIMCOORD 40
2        1
13   -2.0515091331130998e-8   -2.0515091331131e-8   -2.0515091331131e-8   1.1866779824424852e-9   1.1866779534042178e-9   1.1866778762311728e-9
15   1.3912336375284973   1.3912336375284973   1.3912336375284973   -1.1866779824424852e-9   -1.1866779534042178e-9   -1.1866778762311728e-9
PRIMVEC 41
2.782467291773246   2.782467291773246   -1.154928674136181e-7
2.782467291773246   -1.154928674136181e-7   2.782467291773246
-1.154928674136181e-7   2.782467291773246   2.782467291773246
PRIMCOORD 41
2        1
13   -2.0515091331130998e-8   -2.0515091331131e-8   -2.0515091331131e-8   1.1866779824424852e-9   1.1866779534042178e-9   1.1866778762311728e-9
15   1.3912336375284973   1.3912336375284973   1.3912336375284973   -1.1866779824424852e-9   -1.1866779534042178e-9   -1.1866778762311728e-9
PRIMVEC 42
2.782467291773246   2.782467291773246   -1.154928674136181e-7
2.782467291773246   -1.154928674136181e-7   2.782467291773246
-1.154928674136181e-7   2.782467291773246   2.782467291773246
PRIMCOORD 42
2        1
13   -2.0515091331130998e-8   -2.0515091331131e-8   -2.0515091331131e-8   1.1866779824424852e-9   1.1866779534042178e-9   1.1866778762311728e-9
15   1.3912336375284973   1.3912336375284973   1.3912336375284973   -1.1866779824424852e-9   -1.1866779534042178e-9   -1.1866778762311728e-9
PRIMVEC 43
2.782467291773246   2.782467291773246   -1.154928674136181e-7
2.782467291773246   -1.154928674136181e-7   2.782467291773246
-1.154928674136181e-7   2.782467291773246   2.782467291773246
PRIMCOORD 43
2        1
13   -2.0515091331130998e-8   -2.0515091331131e-8   -2.0515091331131e-8   1.1866779824424852e-9   1.1866779534042178e-9   1.1866778762311728e-9
15   1.3912336375284973   1.3912336375284973   1.3912336375284973   -1.1866779824424852e-9   -1.1866779534042178e-9   -1.1866778762311728e-9
PRIMVEC 44
2.782467291773246   2.782467291773246   -1.154928674136181e-7
2.782467291773246   -1.154928674136181e-7   2.782467291773246
-1.154928674136181e-7   2.782467291773246   2.782467291773246
PRIMCOORD 44
2        1
13   -2.0515091331130998e-8   -2.0515091331131e-8   -2.0515091331131e-8   1.1866779824424852e-9   1.1866779534042178e-9   1.1866778762311728e-9
15   1.3912336375284973   1.3912336375284973   1.3912336375284973   -1.1866779824424852e-9   -1.1866779534042178e-9   -1.1866778762311728e-9
PRIMVEC 45
2.782467291773246   2.782467291773246   -1.154928674136181e-7
2.782467291773246   -1.154928674136181e-7   2.782467291773246
-1.154928674136181e-7   2.782467291773246   2.782467291773246
PRIMCOORD 45
2        1
13   -2.0515091331130998e-8   -2.0515091331131e-8   -2.0515091331131e-8   1.1866779824424852e-9   1.1866779534042178e-9   1.1866778762311728e-9
15   1.3912336375284973   1.3912336375284973   1.3912336375284973   -1.1866779824424852e-9   -1.1866779534042178e-9   -1.1866778762311728e-9
PRIMVEC 46
2.782467291773246   2.782467291773246   -1.154928674136181e-7
2.782467291773246   -1.154928674136181e-7   2.782467291773246
-1.154928674136181e-7   2.782467291773246   2.782467291773246
PRIMCOORD 46
2        1
13   -2.0515091331130998e-8   -2.0515091331131e-8   -2.0515091331131e-8   1.1866779824424852e-9   1.1866779534042178e-9   1.1866778762311728e-9
15   1.3912336375284973   1.3912336375284973   1.3912336375284973   -1.1866779824424852e-9   -1.1866779534042178e-9   -1.1866778762311728e-9
PRIMVEC 47
2.782467291773246   2.782467291773246   -1.154928674136181e-7
2.782467291773246   -1.154928674136181e-7   2.782467291773246
-1.154928674136181e-7   2.782467291773246   2.782467291773246
PRIMCOORD 47
2        1
13   -2.0515091331130998e-8   -2.0515091331131e-8   -2.0515091331131e-8   1.1866779824424852e-9   1.1866779534042178e-9   1.1866778762311728e-9
15   1.3912336375284973   1.3912336375284973   1.3912336375284973   -1.1866779824424852e-9   -1.1866779534042178e-9   -1.1866778762311728e-9
PRIMVEC 48
2.782467291773246   2.782467291773246   -1.154928674136181e-7
2.782467291773246   -1.154928674136181e-7   2.782467291773246
-1.154928674136181e-7   2.782467291773246   2.782467291773246
PRIMCOORD 48
2        1
13   -2.0515091331130998e-8   -2.0515091331131e-8   -2.0515091331131e-8   1.1866779824424852e-9   1.1866779534042178e-9   1.1866778762311728e-9
15   1.3912336375284973   1.3912336375284973   1.3912336375284973   -1.1866779824424852e-9   -1.1866779534042178e-9   -1.1866778762311728e-9
PRIMVEC 49
2.782467291773246   2.782467291773246   -1.154928674136181e-7
2.782467291773246   -1.154928674136181e-7   2.782467291773246
-1.154928674136181e-7   2.782467291773246   2.782467291773246
PRIMCOORD 49
2        1
13   -2.0515091331130998e-8   -2.0515091331131e-8   -2.0515091331131e-8   1.1866779824424852e-9   1.1866779534042178e-9   1.1866778762311728e-9
15   1.3912336375284973   1.3912336375284973   1.3912336375284973   -1.1866779824424852e-9   -1.1866779534042178e-9   -1.1866778762311728e-9
PRIMVEC 50
2.782467291773246   2.782467291773246   -1.154928674136181e-7
2.782467291773246   -1.154928674136181e-7   2.782467291773246
-1.154928674136181e-7   2.782467291773246   2.782467291773246
PRIMCOORD 50
2        1
13   -2.0515091331130998e-8   -2.0515091331131e-8   -2.0515091331131e-8   1.1866779824424852e-9   1.1866779534042178e-9   1.1866778762311728e-9
15   1.3912336375284973   1.3912336375284973   1.3912336375284973   -1.1866779824424852e-9   -1.1866779534042178e-9   -1.1866778762311728e-9
PRIMVEC 51
2.782467291773246   2.782467291773246   -1.154928674136181e-7
2.782467291773246   -1.154928674136181e-7   2.782467291773246
-1.154928674136181e-7   2.782467291773246   2.782467291773246
PRIMCOORD 51
2        1
13   -2.0515091331130998e-8   -2.0515091331131e-8   -2.0515091331131e-8   1.1866779824424852e-9   1.1866779534042178e-9   1.1866778762311728e-9
15   1.3912336375284973   1.3912336375284973   1.3912336375284973   -1.1866779824424852e-9   -1.1866779534042178e-9   -1.1866778762311728e-9
PRIMVEC 52
2.782467291773246   2.782467291773246   -1.154928674136181e-7
2.782467291773246   -1.154928674136181e-7   2.782467291773246
-1.154928674136181e-7   2.782467291773246   2.782467291773246
PRIMCOORD 52
2        1
13   -2.0515091331130998e-8   -2.0515091331131e-8   -2.0515091331131e-8   1.1866779824424852e-9   1.1866779534042178e-9   1.1866778762311728e-9
15   1.3912336375284973   1.3912336375284973   1.3912336375284973   -1.1866779824424852e-9   -1.1866779534042178e-9   -1.1866778762311728e-9
PRIMVEC 53
2.782467291773246   2.782467291773246   -1.154928674136181e-7
2.782467291773246   -1.154928674136181e-7   2.782467291773246
-1.154928674136181e-7   2.782467291773246   2.782467291773246
PRIMCOORD 53
2        1
13   -2.0515091331130998e-8   -2.0515091331131e-8   -2.0515091331131e-8   1.1866779824424852e-9   1.1866779534042178e-9   1.1866778762311728e-9
15   1.3912336375284973   1.3912336375284973   1.3912336375284973   -1.1866779824424852e-9   -1.1866779534042178e-9   -1.1866778762311728e-9
PRIMVEC 54
2.782467291773246   2.782467291773246   -1.154928674136181e-7
2.782467291773246   -1.154928674136181e-7   2.782467291773246
-1.154928674136181e-7   2.782467291773246   2.782467291773246
PRIMCOORD 54
2        1
13   -2.0515091331130998e-8   -2.0515091331131e-8   -2.0515091331131e-8   1.1866779824424852e-9   1.1866779534042178e-9   1.1866778762311728e-9
15   1.3912336375284973   1.3912336375284973   1.3912336375284973   -1.1866779824424852e-9   -1.1866779534042178e-9   -1.1866778762311728e-9
PRIMVEC 55
2.782467291773246   2.782467291773246   -1.154928674136181e-7
2.782467291773246   -1.154928674136181e-7   2.782467291773246
-1.154928674136181e-7   2.782467291773246   2.782467291773246
PRIMCOORD 55
2        1
13   -2.0515091331130998e-8   -2.0515091331131e-8   -2.0515091331131e-8   1.1866779824424852e-9   1.1866779534042178e-9   1.1866778762311728e-9
15   1.3912336375284973   1.3912336375284973   1.3912336375284973   -1.1866779824424852e-9   -1.1866779534042178e-9   -1.1866778762311728e-9
PRIMVEC 56
2.782467291773246   2.782467291773246   -1.154928674136181e-7
2.782467291773246   -1.154928674136181e-7   2.782467291773246
-1.154928674136181e-7   2.782467291773246   2.782467291773246
PRIMCOORD 56
2        1
13   -2.0515091331130998e-8   -2.0515091331131e-8   -2.0515091331131e-8   1.1866779824424852e-9   1.1866779534042178e-9   1.1866778762311728e-9
15   1.3912336375284973   1.3912336375284973   1.3912336375284973   -1.1866779824424852e-9   -1.1866779534042178e-9   -1.1866778762311728e-9
PRIMVEC 57
2.782467291773246   2.782467291773246   -1.154928674136181e-7
2.782467291773246   -1.154928674136181e-7   2.782467291773246
-1.154928674136181e-7   2.782467291773246   2.782467291773246
PRIMCOORD 57
2        1
13   -2.0515091331130998e-8   -2.0515091331131e-8   -2.0515091331131e-8   1.1866779824424852e-9   1.1866779534042178e-9   1.1866778762311728e-9
15   1.3912336375284973   1.3912336375284973   1.3912336375284973   -1.1866779824424852e-9   -1.1866779534042178e-9   -1.1866778762311728e-9
PRIMVEC 58
2.782467291773246   2.782467291773246   -1.154928674136181e-7
2.782467291773246   -1.154928674136181e-7   2.782467291773246
-1.154928674136181e-7   2.782467291773246   2.782467291773246
PRIMCOORD 58
2        1
13   -2.0515091331130998e-8   -2.0515091331131e-8   -2.0515091331131e-8   1.1866779824424852e-9   1.1866779534042178e-9   1.1866778762311728e-9
15   1.3912336375284973   1.3912336375284973   1.3912336375284973   -1.1866779824424852e-9   -1.1866779534042178e-9   -1.1866778762311728e-9
PRIMVEC 59
2.782467291773246   2.782467291773246   -1.154928674136181e-7
2.782467291773246   -1.154928674136181e-7   2.782467291773246
-1.154928674136181e-7   2.782467291773246   2.782467291773246
PRIMCOORD 59
2        1
13   -2.0515091331130998e-8   -2.0515091331131e-8   -2.0515091331131e-8   1.1866779824424852e-9   1.1866779534042178e-9   1.1866778762311728e-9
15   1.3912336375284973   1.3912336375284973   1.3912336375284973   -1.1866779824424852e-9   -1.1866779534042178e-9   -1.1866778762311728e-9
