ANIMSTEPS  7
CRYSTAL
PRIMVEC 1
2.600001036227576   2.600001036227576   0.0
2.600001036227576   0.0   2.600001036227576
0.0   2.600001036227576   2.600001036227576
PRIMCOORD 1
2        1
13   0.0   0.0   0.0   -4.881452457949885e-13   -4.881496568566239e-13   -4.881509291807442e-13
15   1.300000518113788   1.300000518113788   1.300000518113788   0.0   0.0   0.0
PRIMVEC 2
3.4863229201306623   3.4863229201306623   0.0
3.4863229201306623   0.0   3.4863229201306623
0.0   3.4863229201306623   3.4863229201306623
PRIMCOORD 2
2        1
13   0.0   0.0   0.0   5.0699027232466236e-11   5.0699020649269165e-11   5.069902436158688e-11
15   1.7431614600653311   1.7431614600653311   1.7431614600653311   -5.0699027232466236e-11   -5.0699020649269165e-11   -5.069902436158688e-11
PRIMVEC 3
2.8520996280446855   2.8520996280446855   0.0
2.8520996280446855   0.0   2.8520996280446855
0.0   2.8520996280446855   2.8520996280446855
PRIMCOORD 3
2        1
13   0.0   0.0   0.0   -1.6827236026392931e-9   -1.6827236161747135e-9   -1.6827235958024598e-9
15   1.4260498140223428   1.4260498140223428   1.4260498140223428   1.6827236026392931e-9   1.6827236161747135e-9   1.6827235958024598e-9
PRIMVEC 4
2.8014114489916073   2.8014114489916073   -6.595696632718156e-8
2.8014114489916073   -6.595696632718156e-8   2.8014114489916073
-6.595696632718156e-8   2.8014114489916073   2.8014114489916073
PRIMCOORD 4
2        1
13   -1.8450805109228454e-8   -1.8450805109228454e-8   -1.8450805109228454e-8   3.806779487820703e-9   3.806779490547023e-9   3.806779428015382e-9
15   1.4007057264573675   1.4007057264573675   1.4007057264573672   -3.806779487820703e-9   -3.806779490547023e-9   -3.806779428015382e-9
PRIMVEC 5
2.7812422445918474   2.7812422445918474   -2.8834319364604737e-7
2.7812422445918474   -2.8834319364604737e-7   2.7812422445918474
-2.8834319364604737e-7   2.7812422445918474   2.7812422445918474
PRIMCOORD 5
2        1
13   8.67050598549629e-8   8.670505985496289e-8   8.670505985496289e-8   -7.398611162766377e-8   -7.398611162841429e-8   -7.398611179260443e-8
15   1.3906209635050657   1.3906209635050657   1.3906209635050657   7.398611162766377e-8   7.398611162841429e-8   7.398611179260443e-8
PRIMVEC 6
2.786804337873015   2.786804337873015   -2.0260171425777282e-7
2.786804337873015   -2.0260171425777282e-7   2.786804337873015
-2.0260171425777282e-7   2.786804337873015   2.786804337873015
PRIMCOORD 6
2        1
13   -6.501175261882224e-7   -6.501175261882224e-7   -6.501175261882223e-7   3.727949195268818e-7   3.7279491954709487e-7   3.7279491968580647e-7
15   1.3934027684036052   1.3934027684036052   1.393402768403605   -3.727949195268818e-7   -3.7279491954709487e-7   -3.7279491968580647e-7
PRIMVEC 7
2.7865476865297385   2.7865476865297385   -6.49301938776173e-7
2.7865476865297385   -6.49301938776173e-7   2.7865476865297385
-6.49301938776173e-7   2.7865476865297385   2.7865476865297385
PRIMCOORD 7
2        1
13   3.920938640735926e-6   3.920938640735926e-6   3.920938640735926e-6   -2.384449199616037e-6   -2.384449199563623e-6   -2.3844492004561266e-6
15   1.3932697600007442   1.3932697600007442   1.3932697600007442   2.384449199616037e-6   2.384449199563623e-6   2.3844492004561266e-6
