
     Program PROJWFC v.6.5 starts on 16Apr2020 at 21:34:59 

     This program is part of the open-source Quantum ESPRESSO suite
     for quantum simulation of materials; please cite
         "P. Giannozzi et al., J. Phys.:Condens. Matter 21 395502 (2009);
         "P. Giannozzi et al., J. Phys.:Condens. Matter 29 465901 (2017);
          URL http://www.quantum-espresso.org", 
     in publications or presentations arising from this work. More details at
     http://www.quantum-espresso.org/quote

     Parallel version (MPI), running on     1 processors

     MPI processes distributed on     1 nodes

     Reading xml data from directory:

     /wrk/kfg/julia_data/MgS/dimer.in_vnscf_coords_5/qe.nscf.save/

     IMPORTANT: XC functional enforced from input :
     Exchange-correlation= PBESOL
                           (   1   4  10   8   0   0   0)
     Any further DFT definition will be discarded
     Please, verify this is what you really want

               file mg.pbesol.UPF: wavefunction(s)  3P renormalized
 
     G-vector sticks info
     --------------------
     sticks:   dense  smooth     PW     G-vecs:    dense   smooth      PW
     Sum        3909    2801    777               261761   159925   23349
 

     negative rho (up, down):  5.518E-05 0.000E+00

     Gaussian broadening (read from file): ngauss,degauss=   0    0.010000


     Calling projwave .... 
 
  Problem Sizes 
  natomwfc =           12
  nbnd     =           33
  nkstot   =           64
  npwx     =        20028
  nkb      =           37
 

     Atomic states used for projection
     (read from pseudopotential files):

     state #   1: atom   1 (Mg ), wfc  1 (l=0 m= 1)
     state #   2: atom   1 (Mg ), wfc  2 (l=1 m= 1)
     state #   3: atom   1 (Mg ), wfc  2 (l=1 m= 2)
     state #   4: atom   1 (Mg ), wfc  2 (l=1 m= 3)
     state #   5: atom   1 (Mg ), wfc  3 (l=0 m= 1)
     state #   6: atom   1 (Mg ), wfc  4 (l=1 m= 1)
     state #   7: atom   1 (Mg ), wfc  4 (l=1 m= 2)
     state #   8: atom   1 (Mg ), wfc  4 (l=1 m= 3)
     state #   9: atom   2 (S  ), wfc  1 (l=0 m= 1)
     state #  10: atom   2 (S  ), wfc  2 (l=1 m= 1)
     state #  11: atom   2 (S  ), wfc  2 (l=1 m= 2)
     state #  12: atom   2 (S  ), wfc  2 (l=1 m= 3)

 k =   0.0000000000  0.0000000000  0.0000000000
==== e(   1) =   -80.36476 eV ==== 
     psi = 0.996*[#   1]+0.003*[#  10]
    |psi|^2 = 1.000
==== e(   2) =   -47.31927 eV ==== 
     psi = 0.985*[#   2]+0.011*[#   6]+0.002*[#  10]+0.001*[#   9]
    |psi|^2 = 1.000
==== e(   3) =   -47.31481 eV ==== 
     psi = 0.982*[#   4]+0.010*[#   8]+0.008*[#   3]
    |psi|^2 = 1.000
==== e(   4) =   -47.31481 eV ==== 
     psi = 0.982*[#   3]+0.010*[#   7]+0.008*[#   4]
    |psi|^2 = 1.000
==== e(   5) =   -14.15617 eV ==== 
     psi = 0.854*[#   9]+0.076*[#   6]+0.065*[#   5]+0.003*[#  10]
    |psi|^2 = 0.997
==== e(   6) =    -5.81588 eV ==== 
     psi = 0.608*[#  10]+0.340*[#   5]+0.042*[#   9]+0.001*[#   1]
    |psi|^2 = 0.991
==== e(   7) =    -4.07541 eV ==== 
     psi = 0.671*[#  12]+0.211*[#  11]+0.083*[#   8]+0.026*[#   7]
    |psi|^2 = 0.992
==== e(   8) =    -4.07541 eV ==== 
     psi = 0.671*[#  11]+0.211*[#  12]+0.083*[#   7]+0.026*[#   8]
    |psi|^2 = 0.992
==== e(   9) =    -3.56979 eV ==== 
     psi = 0.434*[#   5]+0.300*[#   6]+0.240*[#  10]
    |psi|^2 = 0.975
==== e(  10) =    -0.37904 eV ==== 
     psi = 0.554*[#   7]+0.157*[#   8]+0.070*[#  11]+0.020*[#  12]+0.006*[#   3]
          +0.002*[#   4]
    |psi|^2 = 0.809
==== e(  11) =    -0.37904 eV ==== 
     psi = 0.554*[#   8]+0.157*[#   7]+0.070*[#  12]+0.020*[#  11]+0.006*[#   4]
          +0.002*[#   3]
    |psi|^2 = 0.809
==== e(  12) =     0.24399 eV ==== 
     psi = 0.080*[#   6]+0.008*[#   9]+0.005*[#   5]+0.001*[#   2]
    |psi|^2 = 0.094
==== e(  13) =     0.49613 eV ==== 
     psi = 0.145*[#   6]+0.076*[#   5]+0.044*[#  10]+0.027*[#   9]+0.004*[#   2]
          
    |psi|^2 = 0.295
==== e(  14) =     1.43467 eV ==== 
     psi = 0.012*[#   6]+0.006*[#   5]+0.005*[#  10]+0.004*[#   9]
    |psi|^2 = 0.026
==== e(  15) =     1.46589 eV ==== 
 
    |psi|^2 = 0.000
==== e(  16) =     2.78055 eV ==== 
     psi = 0.041*[#   7]+0.011*[#   8]+0.007*[#  11]+0.002*[#  12]
    |psi|^2 = 0.061
==== e(  17) =     2.78055 eV ==== 
     psi = 0.041*[#   8]+0.011*[#   7]+0.007*[#  12]+0.002*[#  11]
    |psi|^2 = 0.061
==== e(  18) =     2.83864 eV ==== 
     psi = 0.070*[#   6]+0.029*[#  10]+0.021*[#   5]+0.013*[#   9]+0.002*[#   2]
          
    |psi|^2 = 0.135
==== e(  19) =     3.10410 eV ==== 
 
    |psi|^2 = 0.000
==== e(  20) =     3.38644 eV ==== 
 
    |psi|^2 = 0.000
==== e(  21) =     3.39719 eV ==== 
     psi = 0.052*[#   6]+0.009*[#   5]+0.007*[#   9]+0.006*[#  10]
    |psi|^2 = 0.075
==== e(  22) =     3.72835 eV ==== 
 
    |psi|^2 = 0.000
==== e(  23) =     3.75034 eV ==== 
     psi = 0.001*[#  11]+0.001*[#  12]
    |psi|^2 = 0.003
==== e(  24) =     3.75034 eV ==== 
     psi = 0.001*[#  12]+0.001*[#  11]
    |psi|^2 = 0.003
==== e(  25) =     4.30592 eV ==== 
     psi = 0.001*[#   6]+0.001*[#   5]
    |psi|^2 = 0.003
==== e(  26) =     4.32353 eV ==== 
     psi = 0.021*[#   8]+0.003*[#  12]
    |psi|^2 = 0.024
==== e(  27) =     4.32353 eV ==== 
     psi = 0.021*[#   7]+0.003*[#  11]
    |psi|^2 = 0.024
==== e(  28) =     4.91539 eV ==== 
     psi = 0.014*[#   6]+0.007*[#   5]+0.004*[#  10]+0.002*[#   9]
    |psi|^2 = 0.027
==== e(  29) =     5.20597 eV ==== 
     psi = 0.010*[#   8]+0.004*[#  12]+0.002*[#   7]+0.001*[#  11]
    |psi|^2 = 0.018
==== e(  30) =     5.20597 eV ==== 
     psi = 0.010*[#   7]+0.004*[#  11]+0.002*[#   8]+0.001*[#  12]
    |psi|^2 = 0.018
==== e(  31) =     5.23079 eV ==== 
     psi = 0.004*[#   6]+0.002*[#   5]+0.001*[#   9]
    |psi|^2 = 0.008
==== e(  32) =     5.34252 eV ==== 
 
    |psi|^2 = 0.000
==== e(  33) =     6.07612 eV ==== 
 
    |psi|^2 = 0.000

 k =   0.0000000000  0.0000000000  0.1750000000
==== e(   1) =   -80.36476 eV ==== 
     psi = 0.996*[#   1]+0.003*[#  10]
    |psi|^2 = 1.000
==== e(   2) =   -47.31927 eV ==== 
     psi = 0.985*[#   2]+0.011*[#   6]+0.002*[#  10]+0.001*[#   9]
    |psi|^2 = 1.000
==== e(   3) =   -47.31481 eV ==== 
     psi = 0.988*[#   4]+0.010*[#   8]+0.002*[#   3]
    |psi|^2 = 1.000
==== e(   4) =   -47.31481 eV ==== 
     psi = 0.988*[#   3]+0.010*[#   7]+0.002*[#   4]
    |psi|^2 = 1.000
==== e(   5) =   -14.15617 eV ==== 
     psi = 0.854*[#   9]+0.076*[#   6]+0.065*[#   5]+0.003*[#  10]
    |psi|^2 = 0.997
==== e(   6) =    -5.81678 eV ==== 
     psi = 0.607*[#  10]+0.340*[#   5]+0.042*[#   9]+0.001*[#   1]
    |psi|^2 = 0.991
==== e(   7) =    -4.07534 eV ==== 
     psi = 0.879*[#  12]+0.109*[#   8]+0.003*[#  11]
    |psi|^2 = 0.992
==== e(   8) =    -4.07534 eV ==== 
     psi = 0.879*[#  11]+0.109*[#   7]+0.003*[#  12]
    |psi|^2 = 0.992
==== e(   9) =    -3.56375 eV ==== 
     psi = 0.433*[#   5]+0.301*[#   6]+0.240*[#  10]
    |psi|^2 = 0.976
==== e(  10) =    -0.38208 eV ==== 
     psi = 0.676*[#   8]+0.085*[#  12]+0.035*[#   7]+0.008*[#   4]+0.004*[#  11]
          
    |psi|^2 = 0.808
==== e(  11) =    -0.38208 eV ==== 
     psi = 0.676*[#   7]+0.085*[#  11]+0.035*[#   8]+0.008*[#   3]+0.004*[#  12]
          
    |psi|^2 = 0.808
==== e(  12) =     0.18761 eV ==== 
     psi = 0.110*[#   6]+0.039*[#   5]+0.022*[#  10]+0.018*[#   9]+0.002*[#   2]
          
    |psi|^2 = 0.192
==== e(  13) =     0.42616 eV ==== 
     psi = 0.096*[#   6]+0.031*[#   5]+0.017*[#  10]+0.014*[#   9]+0.002*[#   2]
          
    |psi|^2 = 0.160
==== e(  14) =     1.48174 eV ==== 
 
    |psi|^2 = 0.000
==== e(  15) =     1.71886 eV ==== 
     psi = 0.031*[#   6]+0.017*[#   5]+0.013*[#  10]+0.006*[#   9]
    |psi|^2 = 0.068
==== e(  16) =     2.65589 eV ==== 
     psi = 0.057*[#   6]+0.020*[#  10]+0.017*[#   5]+0.011*[#   9]+0.001*[#   2]
          
    |psi|^2 = 0.106
==== e(  17) =     2.86005 eV ==== 
     psi = 0.031*[#   7]+0.023*[#   8]+0.006*[#  11]+0.004*[#  12]
    |psi|^2 = 0.065
==== e(  18) =     2.86005 eV ==== 
     psi = 0.031*[#   8]+0.023*[#   7]+0.006*[#  12]+0.004*[#  11]
    |psi|^2 = 0.065
==== e(  19) =     3.07545 eV ==== 
 
    |psi|^2 = 0.000
==== e(  20) =     3.11055 eV ==== 
 
    |psi|^2 = 0.000
==== e(  21) =     3.67526 eV ==== 
     psi = 0.035*[#   6]+0.010*[#   5]+0.007*[#  10]+0.005*[#   9]
    |psi|^2 = 0.057
==== e(  22) =     3.68606 eV ==== 
     psi = 0.008*[#   8]+0.002*[#   7]+0.002*[#  12]
    |psi|^2 = 0.012
==== e(  23) =     3.68606 eV ==== 
     psi = 0.008*[#   7]+0.002*[#   8]+0.002*[#  11]
    |psi|^2 = 0.012
==== e(  24) =     3.94712 eV ==== 
     psi = 0.034*[#   6]+0.007*[#   5]+0.005*[#   9]+0.003*[#  10]
    |psi|^2 = 0.051
==== e(  25) =     4.18354 eV ==== 
     psi = 0.007*[#   8]+0.003*[#   7]+0.002*[#  12]
    |psi|^2 = 0.014
==== e(  26) =     4.18354 eV ==== 
     psi = 0.007*[#   7]+0.003*[#   8]+0.002*[#  11]
    |psi|^2 = 0.014
==== e(  27) =     4.26353 eV ==== 
 
    |psi|^2 = 0.000
==== e(  28) =     4.67771 eV ==== 
     psi = 0.019*[#   6]+0.009*[#  10]+0.005*[#   5]+0.005*[#   9]
    |psi|^2 = 0.038
==== e(  29) =     5.17394 eV ==== 
 
    |psi|^2 = 0.000
==== e(  30) =     5.43509 eV ==== 
     psi = 0.005*[#   8]+0.003*[#   7]+0.002*[#  12]+0.001*[#  11]
    |psi|^2 = 0.011
==== e(  31) =     5.43509 eV ==== 
     psi = 0.005*[#   7]+0.003*[#   8]+0.002*[#  11]+0.001*[#  12]
    |psi|^2 = 0.011
==== e(  32) =     5.44656 eV ==== 
     psi = 0.016*[#   6]+0.006*[#  10]+0.003*[#   9]+0.002*[#   5]
    |psi|^2 = 0.027
==== e(  33) =     5.98851 eV ==== 
     psi = 0.005*[#   8]
    |psi|^2 = 0.006

 k =   0.0000000000  0.0000000000 -0.3500000000
==== e(   1) =   -80.36476 eV ==== 
     psi = 0.996*[#   1]+0.003*[#  10]
    |psi|^2 = 1.000
==== e(   2) =   -47.31927 eV ==== 
     psi = 0.985*[#   2]+0.011*[#   6]+0.002*[#  10]+0.001*[#   9]
    |psi|^2 = 1.000
==== e(   3) =   -47.31480 eV ==== 
     psi = 0.989*[#   4]+0.010*[#   8]
    |psi|^2 = 1.000
==== e(   4) =   -47.31480 eV ==== 
     psi = 0.989*[#   3]+0.010*[#   7]
    |psi|^2 = 1.000
==== e(   5) =   -14.15617 eV ==== 
     psi = 0.854*[#   9]+0.076*[#   6]+0.065*[#   5]+0.003*[#  10]
    |psi|^2 = 0.997
==== e(   6) =    -5.81769 eV ==== 
     psi = 0.607*[#  10]+0.340*[#   5]+0.042*[#   9]+0.001*[#   1]
    |psi|^2 = 0.991
==== e(   7) =    -4.07526 eV ==== 
     psi = 0.764*[#  11]+0.118*[#  12]+0.095*[#   7]+0.015*[#   8]
    |psi|^2 = 0.992
==== e(   8) =    -4.07526 eV ==== 
     psi = 0.764*[#  12]+0.118*[#  11]+0.095*[#   8]+0.015*[#   7]
    |psi|^2 = 0.992
==== e(   9) =    -3.55768 eV ==== 
     psi = 0.433*[#   5]+0.302*[#   6]+0.241*[#  10]
    |psi|^2 = 0.978
==== e(  10) =    -0.38510 eV ==== 
     psi = 0.422*[#   8]+0.287*[#   7]+0.053*[#  12]+0.036*[#  11]+0.005*[#   4]
          +0.003*[#   3]
    |psi|^2 = 0.807
==== e(  11) =    -0.38510 eV ==== 
     psi = 0.422*[#   7]+0.287*[#   8]+0.053*[#  11]+0.036*[#  12]+0.005*[#   3]
          +0.003*[#   4]
    |psi|^2 = 0.807
==== e(  12) =     0.11713 eV ==== 
     psi = 0.127*[#   6]+0.060*[#   5]+0.034*[#  10]+0.025*[#   9]+0.003*[#   2]
          
    |psi|^2 = 0.249
==== e(  13) =     0.40405 eV ==== 
     psi = 0.072*[#   6]+0.006*[#   9]+0.005*[#   5]+0.001*[#   2]
    |psi|^2 = 0.085
==== e(  14) =     1.49861 eV ==== 
 
    |psi|^2 = 0.000
==== e(  15) =     1.99093 eV ==== 
     psi = 0.054*[#   6]+0.026*[#   5]+0.025*[#  10]+0.009*[#   9]+0.001*[#   2]
          
    |psi|^2 = 0.116
==== e(  16) =     2.66399 eV ==== 
     psi = 0.015*[#   6]+0.009*[#   5]+0.002*[#   9]+0.002*[#  10]
    |psi|^2 = 0.029
==== e(  17) =     2.91726 eV ==== 
 
    |psi|^2 = 0.000
==== e(  18) =     2.96752 eV ==== 
     psi = 0.038*[#   8]+0.022*[#   7]+0.008*[#  12]+0.005*[#  11]
    |psi|^2 = 0.073
==== e(  19) =     2.96752 eV ==== 
     psi = 0.038*[#   7]+0.022*[#   8]+0.008*[#  11]+0.005*[#  12]
    |psi|^2 = 0.073
==== e(  20) =     3.11715 eV ==== 
 
    |psi|^2 = 0.000
==== e(  21) =     3.30906 eV ==== 
     psi = 0.051*[#   6]+0.013*[#   5]+0.013*[#  10]+0.011*[#   9]+0.001*[#   2]
          
    |psi|^2 = 0.090
==== e(  22) =     3.56260 eV ==== 
     psi = 0.008*[#   8]+0.007*[#   7]
    |psi|^2 = 0.017
==== e(  23) =     3.56260 eV ==== 
     psi = 0.008*[#   7]+0.007*[#   8]
    |psi|^2 = 0.017
==== e(  24) =     4.01090 eV ==== 
     psi = 0.039*[#   6]+0.006*[#   5]+0.005*[#   9]+0.004*[#  10]
    |psi|^2 = 0.054
==== e(  25) =     4.12587 eV ==== 
     psi = 0.003*[#  12]
    |psi|^2 = 0.004
==== e(  26) =     4.12587 eV ==== 
     psi = 0.003*[#  11]
    |psi|^2 = 0.004
==== e(  27) =     4.80909 eV ==== 
     psi = 0.019*[#   6]+0.012*[#  10]+0.005*[#   5]+0.004*[#   9]
    |psi|^2 = 0.040
==== e(  28) =     5.06148 eV ==== 
 
    |psi|^2 = 0.000
==== e(  29) =     5.06988 eV ==== 
 
    |psi|^2 = 0.000
==== e(  30) =     5.17746 eV ==== 
 
    |psi|^2 = 0.000
==== e(  31) =     5.45160 eV ==== 
 
    |psi|^2 = 0.000
==== e(  32) =     5.45160 eV ==== 
 
    |psi|^2 = 0.000
==== e(  33) =     5.54503 eV ==== 
     psi = 0.064*[#   6]+0.015*[#  10]+0.012*[#   9]+0.011*[#   5]+0.001*[#   2]
          
    |psi|^2 = 0.103

 k =   0.0000000000  0.0000000000 -0.1750000000
==== e(   1) =   -80.36476 eV ==== 
     psi = 0.996*[#   1]+0.003*[#  10]
    |psi|^2 = 1.000
==== e(   2) =   -47.31927 eV ==== 
     psi = 0.985*[#   2]+0.011*[#   6]+0.002*[#  10]+0.001*[#   9]
    |psi|^2 = 1.000
==== e(   3) =   -47.31481 eV ==== 
     psi = 0.989*[#   4]+0.010*[#   8]
    |psi|^2 = 1.000
==== e(   4) =   -47.31481 eV ==== 
     psi = 0.989*[#   3]+0.010*[#   7]
    |psi|^2 = 1.000
==== e(   5) =   -14.15617 eV ==== 
     psi = 0.854*[#   9]+0.076*[#   6]+0.065*[#   5]+0.003*[#  10]
    |psi|^2 = 0.997
==== e(   6) =    -5.81678 eV ==== 
     psi = 0.607*[#  10]+0.340*[#   5]+0.042*[#   9]+0.001*[#   1]
    |psi|^2 = 0.991
==== e(   7) =    -4.07534 eV ==== 
     psi = 0.691*[#  12]+0.191*[#  11]+0.086*[#   8]+0.024*[#   7]
    |psi|^2 = 0.992
==== e(   8) =    -4.07534 eV ==== 
     psi = 0.691*[#  11]+0.191*[#  12]+0.086*[#   7]+0.024*[#   8]
    |psi|^2 = 0.992
==== e(   9) =    -3.56375 eV ==== 
     psi = 0.433*[#   5]+0.301*[#   6]+0.240*[#  10]
    |psi|^2 = 0.976
==== e(  10) =    -0.38208 eV ==== 
     psi = 0.520*[#   8]+0.190*[#   7]+0.065*[#  12]+0.024*[#  11]+0.006*[#   4]
          +0.002*[#   3]
    |psi|^2 = 0.808
==== e(  11) =    -0.38208 eV ==== 
     psi = 0.520*[#   7]+0.190*[#   8]+0.065*[#  11]+0.024*[#  12]+0.006*[#   3]
          +0.002*[#   4]
    |psi|^2 = 0.808
==== e(  12) =     0.18761 eV ==== 
     psi = 0.110*[#   6]+0.039*[#   5]+0.022*[#  10]+0.018*[#   9]+0.002*[#   2]
          
    |psi|^2 = 0.192
==== e(  13) =     0.42616 eV ==== 
     psi = 0.096*[#   6]+0.031*[#   5]+0.017*[#  10]+0.014*[#   9]+0.002*[#   2]
          
    |psi|^2 = 0.160
==== e(  14) =     1.48174 eV ==== 
 
    |psi|^2 = 0.000
==== e(  15) =     1.71886 eV ==== 
     psi = 0.031*[#   6]+0.017*[#   5]+0.013*[#  10]+0.006*[#   9]
    |psi|^2 = 0.068
==== e(  16) =     2.65589 eV ==== 
     psi = 0.057*[#   6]+0.020*[#  10]+0.017*[#   5]+0.011*[#   9]+0.001*[#   2]
          
    |psi|^2 = 0.106
==== e(  17) =     2.86005 eV ==== 
     psi = 0.028*[#   7]+0.026*[#   8]+0.005*[#  11]+0.005*[#  12]
    |psi|^2 = 0.065
==== e(  18) =     2.86005 eV ==== 
     psi = 0.028*[#   8]+0.026*[#   7]+0.005*[#  12]+0.005*[#  11]
    |psi|^2 = 0.065
==== e(  19) =     3.07545 eV ==== 
 
    |psi|^2 = 0.000
==== e(  20) =     3.11055 eV ==== 
 
    |psi|^2 = 0.000
==== e(  21) =     3.67526 eV ==== 
     psi = 0.035*[#   6]+0.010*[#   5]+0.007*[#  10]+0.005*[#   9]
    |psi|^2 = 0.057
==== e(  22) =     3.68606 eV ==== 
     psi = 0.009*[#   7]+0.002*[#  11]
    |psi|^2 = 0.012
==== e(  23) =     3.68606 eV ==== 
     psi = 0.009*[#   8]+0.002*[#  12]
    |psi|^2 = 0.012
==== e(  24) =     3.94712 eV ==== 
     psi = 0.034*[#   6]+0.007*[#   5]+0.005*[#   9]+0.003*[#  10]
    |psi|^2 = 0.051
==== e(  25) =     4.18354 eV ==== 
     psi = 0.007*[#   8]+0.003*[#   7]+0.002*[#  12]
    |psi|^2 = 0.014
==== e(  26) =     4.18354 eV ==== 
     psi = 0.007*[#   7]+0.003*[#   8]+0.002*[#  11]
    |psi|^2 = 0.014
==== e(  27) =     4.26353 eV ==== 
 
    |psi|^2 = 0.000
==== e(  28) =     4.67771 eV ==== 
     psi = 0.019*[#   6]+0.009*[#  10]+0.005*[#   5]+0.005*[#   9]
    |psi|^2 = 0.038
==== e(  29) =     5.17394 eV ==== 
 
    |psi|^2 = 0.000
==== e(  30) =     5.43509 eV ==== 
     psi = 0.006*[#   7]+0.003*[#  11]+0.002*[#   8]
    |psi|^2 = 0.011
==== e(  31) =     5.43509 eV ==== 
     psi = 0.006*[#   8]+0.003*[#  12]+0.002*[#   7]
    |psi|^2 = 0.011
==== e(  32) =     5.44656 eV ==== 
     psi = 0.016*[#   6]+0.006*[#  10]+0.003*[#   9]+0.002*[#   5]
    |psi|^2 = 0.027
==== e(  33) =     5.98851 eV ==== 
     psi = 0.004*[#   7]+0.002*[#   8]
    |psi|^2 = 0.006

 k =   0.0000000000  0.2500000000  0.0000000000
==== e(   1) =   -80.36476 eV ==== 
     psi = 0.996*[#   1]+0.003*[#  10]
    |psi|^2 = 1.000
==== e(   2) =   -47.31927 eV ==== 
     psi = 0.985*[#   2]+0.011*[#   6]+0.002*[#  10]+0.001*[#   9]
    |psi|^2 = 1.000
==== e(   3) =   -47.31481 eV ==== 
     psi = 0.989*[#   3]+0.010*[#   7]
    |psi|^2 = 1.000
==== e(   4) =   -47.31480 eV ==== 
     psi = 0.990*[#   4]+0.010*[#   8]
    |psi|^2 = 1.000
==== e(   5) =   -14.15610 eV ==== 
     psi = 0.854*[#   9]+0.076*[#   6]+0.065*[#   5]+0.003*[#  10]
    |psi|^2 = 0.998
==== e(   6) =    -5.81244 eV ==== 
     psi = 0.610*[#  10]+0.337*[#   5]+0.042*[#   9]+0.001*[#   1]
    |psi|^2 = 0.991
==== e(   7) =    -4.09039 eV ==== 
     psi = 0.876*[#  12]+0.114*[#   8]
    |psi|^2 = 0.991
==== e(   8) =    -4.07413 eV ==== 
     psi = 0.883*[#  11]+0.109*[#   7]
    |psi|^2 = 0.992
==== e(   9) =    -3.54897 eV ==== 
     psi = 0.434*[#   5]+0.303*[#   6]+0.237*[#  10]
    |psi|^2 = 0.978
==== e(  10) =    -0.70667 eV ==== 
     psi = 0.591*[#   8]+0.083*[#  12]+0.007*[#   4]+0.004*[#   6]
    |psi|^2 = 0.685
==== e(  11) =    -0.35073 eV ==== 
     psi = 0.719*[#   7]+0.090*[#  11]+0.008*[#   3]
    |psi|^2 = 0.817
==== e(  12) =     0.55947 eV ==== 
     psi = 0.058*[#   8]+0.034*[#   6]+0.006*[#  12]+0.003*[#   9]
    |psi|^2 = 0.103
==== e(  13) =     0.63202 eV ==== 
     psi = 0.191*[#   6]+0.084*[#   5]+0.048*[#  10]+0.033*[#   9]+0.004*[#   2]
          
    |psi|^2 = 0.362
==== e(  14) =     1.54193 eV ==== 
     psi = 0.019*[#   8]+0.004*[#   6]+0.003*[#   5]+0.003*[#  10]+0.001*[#   9]
          +0.001*[#  12]
    |psi|^2 = 0.032
==== e(  15) =     1.72693 eV ==== 
     psi = 0.068*[#   8]+0.008*[#  12]+0.007*[#   6]+0.002*[#   9]+0.002*[#   5]
          +0.001*[#  10]
    |psi|^2 = 0.089
==== e(  16) =     2.22974 eV ==== 
     psi = 0.004*[#  10]+0.004*[#   6]+0.003*[#   5]+0.001*[#   9]+0.001*[#  12]
          
    |psi|^2 = 0.014
==== e(  17) =     2.46214 eV ==== 
     psi = 0.013*[#   7]+0.001*[#  11]
    |psi|^2 = 0.015
==== e(  18) =     2.57185 eV ==== 
     psi = 0.062*[#   6]+0.015*[#   5]+0.011*[#  10]+0.010*[#   9]+0.001*[#   8]
          +0.001*[#   2]+0.001*[#  12]
    |psi|^2 = 0.101
==== e(  19) =     3.04034 eV ==== 
     psi = 0.034*[#   7]+0.008*[#  11]
    |psi|^2 = 0.042
==== e(  20) =     3.17430 eV ==== 
     psi = 0.006*[#   8]+0.002*[#  10]
    |psi|^2 = 0.010
==== e(  21) =     3.19772 eV ==== 
     psi = 0.018*[#   6]+0.011*[#   8]+0.009*[#  10]+0.005*[#   5]+0.003*[#   9]
          +0.002*[#  12]
    |psi|^2 = 0.049
==== e(  22) =     3.81495 eV ==== 
     psi = 0.023*[#   6]+0.005*[#  10]+0.004*[#   9]+0.004*[#   5]+0.004*[#   8]
          
    |psi|^2 = 0.040
==== e(  23) =     4.13217 eV ==== 
     psi = 0.005*[#   7]+0.003*[#  11]
    |psi|^2 = 0.008
==== e(  24) =     4.16805 eV ==== 
     psi = 0.022*[#   8]+0.006*[#  12]
    |psi|^2 = 0.030
==== e(  25) =     4.48511 eV ==== 
     psi = 0.002*[#   8]
    |psi|^2 = 0.004
==== e(  26) =     4.49214 eV ==== 
     psi = 0.002*[#  11]+0.001*[#   7]
    |psi|^2 = 0.003
==== e(  27) =     4.75976 eV ==== 
     psi = 0.028*[#   6]+0.009*[#   5]+0.004*[#  10]+0.003*[#   9]
    |psi|^2 = 0.044
==== e(  28) =     4.95718 eV ==== 
     psi = 0.012*[#   7]+0.001*[#  11]
    |psi|^2 = 0.013
==== e(  29) =     5.12399 eV ==== 
     psi = 0.001*[#   8]
    |psi|^2 = 0.003
==== e(  30) =     5.22098 eV ==== 
     psi = 0.014*[#   7]+0.002*[#  11]
    |psi|^2 = 0.016
==== e(  31) =     5.29618 eV ==== 
     psi = 0.002*[#   6]+0.002*[#   5]+0.001*[#  10]
    |psi|^2 = 0.007
==== e(  32) =     5.56920 eV ==== 
     psi = 0.013*[#   6]+0.003*[#   5]+0.002*[#   9]+0.001*[#  10]
    |psi|^2 = 0.020
==== e(  33) =     5.64000 eV ==== 
     psi = 0.010*[#   8]+0.001*[#   6]
    |psi|^2 = 0.013

 k =   0.0000000000  0.2500000000  0.1750000000
==== e(   1) =   -80.36476 eV ==== 
     psi = 0.996*[#   1]+0.003*[#  10]
    |psi|^2 = 1.000
==== e(   2) =   -47.31927 eV ==== 
     psi = 0.985*[#   2]+0.011*[#   6]+0.002*[#  10]+0.001*[#   9]
    |psi|^2 = 1.000
==== e(   3) =   -47.31481 eV ==== 
     psi = 0.989*[#   3]+0.010*[#   7]
    |psi|^2 = 1.000
==== e(   4) =   -47.31480 eV ==== 
     psi = 0.990*[#   4]+0.010*[#   8]
    |psi|^2 = 1.000
==== e(   5) =   -14.15609 eV ==== 
     psi = 0.854*[#   9]+0.076*[#   6]+0.065*[#   5]+0.003*[#  10]
    |psi|^2 = 0.998
==== e(   6) =    -5.81332 eV ==== 
     psi = 0.610*[#  10]+0.337*[#   5]+0.042*[#   9]+0.001*[#   1]
    |psi|^2 = 0.991
==== e(   7) =    -4.09026 eV ==== 
     psi = 0.876*[#  12]+0.114*[#   8]
    |psi|^2 = 0.991
==== e(   8) =    -4.07406 eV ==== 
     psi = 0.883*[#  11]+0.109*[#   7]
    |psi|^2 = 0.992
==== e(   9) =    -3.54326 eV ==== 
     psi = 0.434*[#   5]+0.304*[#   6]+0.238*[#  10]
    |psi|^2 = 0.979
==== e(  10) =    -0.70946 eV ==== 
     psi = 0.592*[#   8]+0.083*[#  12]+0.007*[#   4]+0.003*[#   6]
    |psi|^2 = 0.685
==== e(  11) =    -0.35365 eV ==== 
     psi = 0.718*[#   7]+0.090*[#  11]+0.008*[#   3]
    |psi|^2 = 0.816
==== e(  12) =     0.37667 eV ==== 
     psi = 0.127*[#   6]+0.055*[#   5]+0.032*[#  10]+0.023*[#   9]+0.011*[#   8]
          +0.003*[#   2]+0.001*[#  12]
    |psi|^2 = 0.253
==== e(  13) =     0.72963 eV ==== 
     psi = 0.081*[#   6]+0.050*[#   8]+0.020*[#   5]+0.010*[#   9]+0.009*[#  10]
          +0.005*[#  12]+0.002*[#   2]
    |psi|^2 = 0.177
==== e(  14) =     1.61346 eV ==== 
     psi = 0.045*[#   8]+0.009*[#   6]+0.005*[#   5]+0.005*[#  12]+0.004*[#  10]
          +0.002*[#   9]
    |psi|^2 = 0.071
==== e(  15) =     1.88725 eV ==== 
     psi = 0.043*[#   8]+0.015*[#   6]+0.009*[#   5]+0.008*[#  10]+0.006*[#  12]
          +0.003*[#   9]
    |psi|^2 = 0.085
==== e(  16) =     2.09787 eV ==== 
     psi = 0.023*[#   6]+0.007*[#   5]+0.005*[#  10]+0.004*[#   9]
    |psi|^2 = 0.042
==== e(  17) =     2.48860 eV ==== 
     psi = 0.011*[#   7]+0.001*[#  11]
    |psi|^2 = 0.013
==== e(  18) =     2.76968 eV ==== 
     psi = 0.040*[#   6]+0.009*[#   5]+0.006*[#   9]+0.005*[#  10]+0.004*[#   8]
          
    |psi|^2 = 0.065
==== e(  19) =     2.97371 eV ==== 
     psi = 0.014*[#   6]+0.009*[#  10]+0.005*[#   5]+0.003*[#   9]+0.002*[#   8]
          
    |psi|^2 = 0.034
==== e(  20) =     3.08544 eV ==== 
     psi = 0.038*[#   7]+0.009*[#  11]
    |psi|^2 = 0.047
==== e(  21) =     3.30058 eV ==== 
     psi = 0.009*[#   8]+0.003*[#  12]
    |psi|^2 = 0.014
==== e(  22) =     3.79126 eV ==== 
     psi = 0.005*[#   8]+0.003*[#   6]+0.002*[#   5]+0.001*[#  10]+0.001*[#  12]
          
    |psi|^2 = 0.014
==== e(  23) =     3.97348 eV ==== 
     psi = 0.010*[#   7]+0.003*[#  11]
    |psi|^2 = 0.014
==== e(  24) =     4.23021 eV ==== 
     psi = 0.021*[#   6]+0.011*[#   8]+0.006*[#   5]+0.004*[#  10]+0.003*[#   9]
          +0.003*[#  12]
    |psi|^2 = 0.048
==== e(  25) =     4.39820 eV ==== 
     psi = 0.009*[#   6]+0.005*[#   8]+0.004*[#  10]+0.002*[#   5]+0.002*[#  12]
          +0.002*[#   9]
    |psi|^2 = 0.024
==== e(  26) =     4.45094 eV ==== 
     psi = 0.001*[#  11]+0.001*[#   7]
    |psi|^2 = 0.002
==== e(  27) =     4.66233 eV ==== 
     psi = 0.041*[#   6]+0.009*[#  10]+0.008*[#   5]+0.008*[#   9]+0.005*[#   8]
          
    |psi|^2 = 0.072
==== e(  28) =     4.89549 eV ==== 
     psi = 0.006*[#   6]+0.002*[#   5]+0.001*[#  10]+0.001*[#   9]
    |psi|^2 = 0.011
==== e(  29) =     4.90516 eV ==== 
     psi = 0.011*[#   7]+0.002*[#  11]
    |psi|^2 = 0.012
==== e(  30) =     5.16891 eV ==== 
     psi = 0.007*[#   6]+0.007*[#   8]+0.001*[#   5]
    |psi|^2 = 0.018
==== e(  31) =     5.34458 eV ==== 
     psi = 0.004*[#   7]
    |psi|^2 = 0.005
==== e(  32) =     5.43836 eV ==== 
     psi = 0.004*[#   6]+0.001*[#   8]
    |psi|^2 = 0.008
==== e(  33) =     5.72635 eV ==== 
     psi = 0.002*[#   8]
    |psi|^2 = 0.003

 k =   0.0000000000  0.2500000000 -0.3500000000
==== e(   1) =   -80.36476 eV ==== 
     psi = 0.996*[#   1]+0.003*[#  10]
    |psi|^2 = 1.000
==== e(   2) =   -47.31927 eV ==== 
     psi = 0.985*[#   2]+0.011*[#   6]+0.002*[#  10]+0.001*[#   9]
    |psi|^2 = 1.000
==== e(   3) =   -47.31480 eV ==== 
     psi = 0.989*[#   3]+0.010*[#   7]
    |psi|^2 = 1.000
==== e(   4) =   -47.31480 eV ==== 
     psi = 0.990*[#   4]+0.010*[#   8]
    |psi|^2 = 1.000
==== e(   5) =   -14.15609 eV ==== 
     psi = 0.854*[#   9]+0.076*[#   6]+0.065*[#   5]+0.003*[#  10]
    |psi|^2 = 0.998
==== e(   6) =    -5.81419 eV ==== 
     psi = 0.609*[#  10]+0.338*[#   5]+0.042*[#   9]+0.001*[#   1]
    |psi|^2 = 0.991
==== e(   7) =    -4.09014 eV ==== 
     psi = 0.876*[#  12]+0.114*[#   8]
    |psi|^2 = 0.991
==== e(   8) =    -4.07399 eV ==== 
     psi = 0.883*[#  11]+0.109*[#   7]
    |psi|^2 = 0.992
==== e(   9) =    -3.53751 eV ==== 
     psi = 0.434*[#   5]+0.305*[#   6]+0.238*[#  10]
    |psi|^2 = 0.980
==== e(  10) =    -0.71225 eV ==== 
     psi = 0.594*[#   8]+0.082*[#  12]+0.007*[#   4]+0.003*[#   6]
    |psi|^2 = 0.686
==== e(  11) =    -0.35656 eV ==== 
     psi = 0.717*[#   7]+0.089*[#  11]+0.008*[#   3]
    |psi|^2 = 0.815
==== e(  12) =     0.27241 eV ==== 
     psi = 0.137*[#   6]+0.062*[#   5]+0.037*[#  10]+0.026*[#   9]+0.003*[#   2]
          +0.002*[#   8]
    |psi|^2 = 0.270
==== e(  13) =     0.76623 eV ==== 
     psi = 0.060*[#   6]+0.057*[#   8]+0.006*[#   5]+0.006*[#   9]+0.006*[#  12]
          +0.001*[#  10]
    |psi|^2 = 0.138
==== e(  14) =     1.72070 eV ==== 
     psi = 0.069*[#   8]+0.016*[#   6]+0.010*[#  12]+0.008*[#   5]+0.007*[#  10]
          +0.003*[#   9]
    |psi|^2 = 0.115
==== e(  15) =     1.78544 eV ==== 
     psi = 0.015*[#   6]+0.014*[#   8]+0.007*[#   5]+0.007*[#  10]+0.003*[#   9]
          
    |psi|^2 = 0.046
==== e(  16) =     2.33024 eV ==== 
     psi = 0.033*[#   6]+0.015*[#   5]+0.011*[#  10]+0.009*[#   8]+0.005*[#   9]
          +0.002*[#  12]
    |psi|^2 = 0.076
==== e(  17) =     2.51691 eV ==== 
     psi = 0.010*[#   7]+0.001*[#  11]
    |psi|^2 = 0.011
==== e(  18) =     2.73538 eV ==== 
     psi = 0.015*[#   6]+0.005*[#   8]+0.005*[#   5]+0.002*[#   9]
    |psi|^2 = 0.028
==== e(  19) =     3.05754 eV ==== 
     psi = 0.003*[#   6]+0.001*[#   8]
    |psi|^2 = 0.005
==== e(  20) =     3.13248 eV ==== 
     psi = 0.042*[#   7]+0.010*[#  11]
    |psi|^2 = 0.053
==== e(  21) =     3.36576 eV ==== 
     psi = 0.029*[#   6]+0.010*[#   5]+0.009*[#  10]+0.006*[#   9]
    |psi|^2 = 0.057
==== e(  22) =     3.45059 eV ==== 
     psi = 0.013*[#   8]+0.004*[#  12]
    |psi|^2 = 0.018
==== e(  23) =     3.88364 eV ==== 
     psi = 0.017*[#   7]+0.005*[#  11]
    |psi|^2 = 0.022
==== e(  24) =     4.23965 eV ==== 
     psi = 0.025*[#   6]+0.007*[#   5]+0.006*[#  10]+0.005*[#   9]+0.002*[#   8]
          
    |psi|^2 = 0.045
==== e(  25) =     4.30364 eV ==== 
     psi = 0.010*[#   6]+0.005*[#  10]+0.004*[#   8]+0.002*[#   9]+0.002*[#  12]
          +0.002*[#   5]
    |psi|^2 = 0.025
==== e(  26) =     4.34063 eV ==== 
 
    |psi|^2 = 0.000
==== e(  27) =     4.67002 eV ==== 
     psi = 0.024*[#   6]+0.006*[#  10]+0.005*[#   5]+0.004*[#   9]+0.003*[#   8]
          
    |psi|^2 = 0.043
==== e(  28) =     4.77133 eV ==== 
     psi = 0.003*[#   7]
    |psi|^2 = 0.003
==== e(  29) =     5.06674 eV ==== 
     psi = 0.034*[#   6]+0.006*[#   5]+0.006*[#  10]+0.005*[#   9]
    |psi|^2 = 0.052
==== e(  30) =     5.16120 eV ==== 
     psi = 0.020*[#   8]+0.006*[#   6]+0.003*[#  12]+0.001*[#   9]
    |psi|^2 = 0.031
==== e(  31) =     5.51504 eV ==== 
     psi = 0.010*[#   6]+0.004*[#   8]+0.002*[#   9]+0.002*[#  10]+0.001*[#   5]
          
    |psi|^2 = 0.020
==== e(  32) =     5.63997 eV ==== 
 
    |psi|^2 = 0.002
==== e(  33) =     5.91116 eV ==== 
     psi = 0.004*[#   7]+0.002*[#  11]
    |psi|^2 = 0.006

 k =   0.0000000000  0.2500000000 -0.1750000000
==== e(   1) =   -80.36476 eV ==== 
     psi = 0.996*[#   1]+0.003*[#  10]
    |psi|^2 = 1.000
==== e(   2) =   -47.31927 eV ==== 
     psi = 0.985*[#   2]+0.011*[#   6]+0.002*[#  10]+0.001*[#   9]
    |psi|^2 = 1.000
==== e(   3) =   -47.31481 eV ==== 
     psi = 0.989*[#   3]+0.010*[#   7]
    |psi|^2 = 1.000
==== e(   4) =   -47.31480 eV ==== 
     psi = 0.990*[#   4]+0.010*[#   8]
    |psi|^2 = 1.000
==== e(   5) =   -14.15609 eV ==== 
     psi = 0.854*[#   9]+0.076*[#   6]+0.065*[#   5]+0.003*[#  10]
    |psi|^2 = 0.998
==== e(   6) =    -5.81332 eV ==== 
     psi = 0.610*[#  10]+0.337*[#   5]+0.042*[#   9]+0.001*[#   1]
    |psi|^2 = 0.991
==== e(   7) =    -4.09026 eV ==== 
     psi = 0.876*[#  12]+0.114*[#   8]
    |psi|^2 = 0.991
==== e(   8) =    -4.07406 eV ==== 
     psi = 0.883*[#  11]+0.109*[#   7]
    |psi|^2 = 0.992
==== e(   9) =    -3.54326 eV ==== 
     psi = 0.434*[#   5]+0.304*[#   6]+0.238*[#  10]
    |psi|^2 = 0.979
==== e(  10) =    -0.70946 eV ==== 
     psi = 0.592*[#   8]+0.083*[#  12]+0.007*[#   4]+0.003*[#   6]
    |psi|^2 = 0.685
==== e(  11) =    -0.35365 eV ==== 
     psi = 0.718*[#   7]+0.090*[#  11]+0.008*[#   3]
    |psi|^2 = 0.816
==== e(  12) =     0.37667 eV ==== 
     psi = 0.127*[#   6]+0.055*[#   5]+0.032*[#  10]+0.023*[#   9]+0.011*[#   8]
          +0.003*[#   2]+0.001*[#  12]
    |psi|^2 = 0.253
==== e(  13) =     0.72963 eV ==== 
     psi = 0.081*[#   6]+0.050*[#   8]+0.020*[#   5]+0.010*[#   9]+0.009*[#  10]
          +0.005*[#  12]+0.002*[#   2]
    |psi|^2 = 0.177
==== e(  14) =     1.61346 eV ==== 
     psi = 0.045*[#   8]+0.009*[#   6]+0.005*[#   5]+0.005*[#  12]+0.004*[#  10]
          +0.002*[#   9]
    |psi|^2 = 0.071
==== e(  15) =     1.88725 eV ==== 
     psi = 0.043*[#   8]+0.015*[#   6]+0.009*[#   5]+0.008*[#  10]+0.006*[#  12]
          +0.003*[#   9]
    |psi|^2 = 0.085
==== e(  16) =     2.09787 eV ==== 
     psi = 0.023*[#   6]+0.007*[#   5]+0.005*[#  10]+0.004*[#   9]
    |psi|^2 = 0.042
==== e(  17) =     2.48860 eV ==== 
     psi = 0.011*[#   7]+0.001*[#  11]
    |psi|^2 = 0.013
==== e(  18) =     2.76968 eV ==== 
     psi = 0.040*[#   6]+0.009*[#   5]+0.006*[#   9]+0.005*[#  10]+0.004*[#   8]
          
    |psi|^2 = 0.065
==== e(  19) =     2.97371 eV ==== 
     psi = 0.014*[#   6]+0.009*[#  10]+0.005*[#   5]+0.003*[#   9]+0.002*[#   8]
          
    |psi|^2 = 0.034
==== e(  20) =     3.08544 eV ==== 
     psi = 0.038*[#   7]+0.009*[#  11]
    |psi|^2 = 0.047
==== e(  21) =     3.30058 eV ==== 
     psi = 0.009*[#   8]+0.003*[#  12]
    |psi|^2 = 0.014
==== e(  22) =     3.79126 eV ==== 
     psi = 0.005*[#   8]+0.003*[#   6]+0.002*[#   5]+0.001*[#  10]+0.001*[#  12]
          
    |psi|^2 = 0.014
==== e(  23) =     3.97348 eV ==== 
     psi = 0.010*[#   7]+0.003*[#  11]
    |psi|^2 = 0.014
==== e(  24) =     4.23021 eV ==== 
     psi = 0.021*[#   6]+0.011*[#   8]+0.006*[#   5]+0.004*[#  10]+0.003*[#   9]
          +0.003*[#  12]
    |psi|^2 = 0.048
==== e(  25) =     4.39820 eV ==== 
     psi = 0.009*[#   6]+0.005*[#   8]+0.004*[#  10]+0.002*[#   5]+0.002*[#  12]
          +0.002*[#   9]
    |psi|^2 = 0.024
==== e(  26) =     4.45094 eV ==== 
     psi = 0.001*[#  11]+0.001*[#   7]
    |psi|^2 = 0.002
==== e(  27) =     4.66233 eV ==== 
     psi = 0.041*[#   6]+0.009*[#  10]+0.008*[#   5]+0.008*[#   9]+0.005*[#   8]
          
    |psi|^2 = 0.072
==== e(  28) =     4.89549 eV ==== 
     psi = 0.006*[#   6]+0.002*[#   5]+0.001*[#  10]+0.001*[#   9]
    |psi|^2 = 0.011
==== e(  29) =     4.90516 eV ==== 
     psi = 0.011*[#   7]+0.002*[#  11]
    |psi|^2 = 0.012
==== e(  30) =     5.16891 eV ==== 
     psi = 0.007*[#   6]+0.007*[#   8]+0.001*[#   5]
    |psi|^2 = 0.018
==== e(  31) =     5.34458 eV ==== 
     psi = 0.004*[#   7]
    |psi|^2 = 0.005
==== e(  32) =     5.43836 eV ==== 
     psi = 0.004*[#   6]+0.001*[#   8]
    |psi|^2 = 0.008
==== e(  33) =     5.72635 eV ==== 
     psi = 0.002*[#   8]
    |psi|^2 = 0.003

 k =   0.0000000000 -0.5000000000  0.0000000000
==== e(   1) =   -80.36475 eV ==== 
     psi = 0.996*[#   1]+0.003*[#  10]
    |psi|^2 = 1.000
==== e(   2) =   -47.31926 eV ==== 
     psi = 0.985*[#   2]+0.011*[#   6]+0.002*[#  10]+0.001*[#   9]
    |psi|^2 = 1.000
==== e(   3) =   -47.31481 eV ==== 
     psi = 0.989*[#   3]+0.010*[#   7]
    |psi|^2 = 1.000
==== e(   4) =   -47.31480 eV ==== 
     psi = 0.990*[#   4]+0.010*[#   8]
    |psi|^2 = 1.000
==== e(   5) =   -14.15602 eV ==== 
     psi = 0.854*[#   9]+0.076*[#   6]+0.065*[#   5]+0.003*[#  10]
    |psi|^2 = 0.998
==== e(   6) =    -5.80899 eV ==== 
     psi = 0.612*[#  10]+0.335*[#   5]+0.042*[#   9]+0.001*[#   1]
    |psi|^2 = 0.991
==== e(   7) =    -4.10486 eV ==== 
     psi = 0.871*[#  12]+0.119*[#   8]
    |psi|^2 = 0.990
==== e(   8) =    -4.07285 eV ==== 
     psi = 0.883*[#  11]+0.108*[#   7]
    |psi|^2 = 0.992
==== e(   9) =    -3.52779 eV ==== 
     psi = 0.436*[#   5]+0.307*[#   6]+0.235*[#  10]
    |psi|^2 = 0.980
==== e(  10) =    -0.91592 eV ==== 
     psi = 0.570*[#   8]+0.087*[#  12]+0.007*[#   4]
    |psi|^2 = 0.663
==== e(  11) =    -0.32053 eV ==== 
     psi = 0.728*[#   7]+0.090*[#  11]+0.008*[#   3]
    |psi|^2 = 0.826
==== e(  12) =     0.82694 eV ==== 
     psi = 0.217*[#   6]+0.092*[#   5]+0.054*[#  10]+0.037*[#   9]+0.005*[#   2]
          
    |psi|^2 = 0.407
==== e(  13) =     0.95114 eV ==== 
     psi = 0.027*[#   6]+0.002*[#   9]
    |psi|^2 = 0.030
==== e(  14) =     1.19220 eV ==== 
     psi = 0.116*[#   8]+0.012*[#  12]+0.001*[#   4]
    |psi|^2 = 0.129
==== e(  15) =     1.95043 eV ==== 
     psi = 0.003*[#  12]
    |psi|^2 = 0.003
==== e(  16) =     1.98568 eV ==== 
     psi = 0.034*[#   6]+0.011*[#   5]+0.009*[#  10]+0.008*[#   9]
    |psi|^2 = 0.064
==== e(  17) =     2.20041 eV ==== 
 
    |psi|^2 = 0.000
==== e(  18) =     2.49720 eV ==== 
     psi = 0.048*[#   8]+0.006*[#  12]
    |psi|^2 = 0.055
==== e(  19) =     3.17389 eV ==== 
     psi = 0.043*[#   7]+0.010*[#  11]
    |psi|^2 = 0.054
==== e(  20) =     3.18424 eV ==== 
     psi = 0.056*[#   6]+0.013*[#  10]+0.012*[#   5]+0.008*[#   9]+0.001*[#   2]
          
    |psi|^2 = 0.090
==== e(  21) =     3.47588 eV ==== 
     psi = 0.047*[#   8]+0.006*[#  12]
    |psi|^2 = 0.053
==== e(  22) =     3.58154 eV ==== 
     psi = 0.005*[#  10]
    |psi|^2 = 0.006
==== e(  23) =     4.10181 eV ==== 
 
    |psi|^2 = 0.000
==== e(  24) =     4.12698 eV ==== 
     psi = 0.022*[#   6]+0.005*[#  10]+0.004*[#   9]+0.003*[#   5]
    |psi|^2 = 0.034
==== e(  25) =     4.27846 eV ==== 
     psi = 0.003*[#  12]
    |psi|^2 = 0.004
==== e(  26) =     4.43126 eV ==== 
 
    |psi|^2 = 0.000
==== e(  27) =     4.68467 eV ==== 
     psi = 0.010*[#   7]+0.005*[#  11]
    |psi|^2 = 0.016
==== e(  28) =     4.84504 eV ==== 
     psi = 0.005*[#   8]
    |psi|^2 = 0.006
==== e(  29) =     4.98628 eV ==== 
     psi = 0.003*[#   8]+0.002*[#  12]
    |psi|^2 = 0.005
==== e(  30) =     5.23984 eV ==== 
     psi = 0.012*[#   6]+0.004*[#  10]+0.004*[#   5]+0.001*[#   9]
    |psi|^2 = 0.022
==== e(  31) =     5.46048 eV ==== 
     psi = 0.014*[#   6]+0.008*[#   5]+0.002*[#   9]+0.002*[#  10]
    |psi|^2 = 0.027
==== e(  32) =     5.80096 eV ==== 
 
    |psi|^2 = 0.000
==== e(  33) =     5.80898 eV ==== 
     psi = 0.003*[#  11]+0.001*[#   7]
    |psi|^2 = 0.005

 k =   0.0000000000 -0.5000000000  0.1750000000
==== e(   1) =   -80.36476 eV ==== 
     psi = 0.996*[#   1]+0.003*[#  10]
    |psi|^2 = 1.000
==== e(   2) =   -47.31927 eV ==== 
     psi = 0.985*[#   2]+0.011*[#   6]+0.002*[#  10]+0.001*[#   9]
    |psi|^2 = 1.000
==== e(   3) =   -47.31481 eV ==== 
     psi = 0.989*[#   3]+0.010*[#   7]
    |psi|^2 = 1.000
==== e(   4) =   -47.31480 eV ==== 
     psi = 0.990*[#   4]+0.010*[#   8]
    |psi|^2 = 1.000
==== e(   5) =   -14.15602 eV ==== 
     psi = 0.854*[#   9]+0.076*[#   6]+0.065*[#   5]+0.003*[#  10]
    |psi|^2 = 0.998
==== e(   6) =    -5.80984 eV ==== 
     psi = 0.612*[#  10]+0.335*[#   5]+0.042*[#   9]+0.001*[#   1]
    |psi|^2 = 0.991
==== e(   7) =    -4.10470 eV ==== 
     psi = 0.871*[#  12]+0.119*[#   8]
    |psi|^2 = 0.990
==== e(   8) =    -4.07278 eV ==== 
     psi = 0.883*[#  11]+0.108*[#   7]
    |psi|^2 = 0.992
==== e(   9) =    -3.52238 eV ==== 
     psi = 0.436*[#   5]+0.308*[#   6]+0.236*[#  10]
    |psi|^2 = 0.981
==== e(  10) =    -0.91961 eV ==== 
     psi = 0.570*[#   8]+0.086*[#  12]+0.007*[#   4]
    |psi|^2 = 0.663
==== e(  11) =    -0.32333 eV ==== 
     psi = 0.727*[#   7]+0.090*[#  11]+0.008*[#   3]
    |psi|^2 = 0.825
==== e(  12) =     0.63664 eV ==== 
     psi = 0.174*[#   6]+0.075*[#   5]+0.046*[#  10]+0.032*[#   9]+0.004*[#   2]
          
    |psi|^2 = 0.331
==== e(  13) =     1.05647 eV ==== 
     psi = 0.055*[#   6]+0.010*[#   5]+0.006*[#   9]+0.004*[#  10]
    |psi|^2 = 0.075
==== e(  14) =     1.21763 eV ==== 
     psi = 0.090*[#   8]+0.012*[#  12]+0.001*[#   4]
    |psi|^2 = 0.103
==== e(  15) =     1.84143 eV ==== 
     psi = 0.061*[#   8]+0.006*[#  12]
    |psi|^2 = 0.068
==== e(  16) =     2.21612 eV ==== 
 
    |psi|^2 = 0.000
==== e(  17) =     2.23170 eV ==== 
     psi = 0.044*[#   6]+0.018*[#   5]+0.014*[#  10]+0.008*[#   9]+0.001*[#   2]
          
    |psi|^2 = 0.085
==== e(  18) =     2.69805 eV ==== 
     psi = 0.017*[#   8]+0.004*[#  12]
    |psi|^2 = 0.021
==== e(  19) =     3.05068 eV ==== 
     psi = 0.051*[#   6]+0.012*[#   5]+0.011*[#  10]+0.008*[#   9]+0.001*[#   2]
          
    |psi|^2 = 0.084
==== e(  20) =     3.26811 eV ==== 
     psi = 0.048*[#   7]+0.012*[#  11]
    |psi|^2 = 0.060
==== e(  21) =     3.50886 eV ==== 
     psi = 0.002*[#   6]+0.001*[#  10]
    |psi|^2 = 0.004
==== e(  22) =     3.52599 eV ==== 
     psi = 0.036*[#   8]+0.005*[#  12]
    |psi|^2 = 0.041
==== e(  23) =     3.79469 eV ==== 
 
    |psi|^2 = 0.000
==== e(  24) =     4.19515 eV ==== 
     psi = 0.008*[#   8]+0.002*[#  12]
    |psi|^2 = 0.011
==== e(  25) =     4.30281 eV ==== 
     psi = 0.002*[#   8]+0.001*[#  12]
    |psi|^2 = 0.003
==== e(  26) =     4.40328 eV ==== 
     psi = 0.006*[#   6]+0.004*[#  10]+0.003*[#   5]
    |psi|^2 = 0.013
==== e(  27) =     4.45576 eV ==== 
     psi = 0.010*[#   7]+0.004*[#  11]
    |psi|^2 = 0.014
==== e(  28) =     4.86459 eV ==== 
     psi = 0.061*[#   6]+0.015*[#  10]+0.014*[#   5]+0.012*[#   9]+0.001*[#   2]
          
    |psi|^2 = 0.103
==== e(  29) =     4.95076 eV ==== 
 
    |psi|^2 = 0.000
==== e(  30) =     5.30657 eV ==== 
     psi = 0.004*[#   8]+0.002*[#  12]
    |psi|^2 = 0.006
==== e(  31) =     5.44597 eV ==== 
     psi = 0.010*[#   6]+0.005*[#  10]+0.002*[#   9]+0.001*[#   5]
    |psi|^2 = 0.018
==== e(  32) =     5.68985 eV ==== 
     psi = 0.003*[#   7]+0.002*[#  11]
    |psi|^2 = 0.005
==== e(  33) =     5.93483 eV ==== 
     psi = 0.007*[#   8]+0.003*[#  12]
    |psi|^2 = 0.011

 k =   0.0000000000 -0.5000000000 -0.3500000000
==== e(   1) =   -80.36476 eV ==== 
     psi = 0.996*[#   1]+0.003*[#  10]
    |psi|^2 = 1.000
==== e(   2) =   -47.31927 eV ==== 
     psi = 0.985*[#   2]+0.011*[#   6]+0.002*[#  10]+0.001*[#   9]
    |psi|^2 = 1.000
==== e(   3) =   -47.31481 eV ==== 
     psi = 0.990*[#   4]+0.010*[#   8]
    |psi|^2 = 1.000
==== e(   4) =   -47.31481 eV ==== 
     psi = 0.989*[#   3]+0.010*[#   7]
    |psi|^2 = 1.000
==== e(   5) =   -14.15602 eV ==== 
     psi = 0.854*[#   9]+0.076*[#   6]+0.065*[#   5]+0.003*[#  10]
    |psi|^2 = 0.998
==== e(   6) =    -5.81068 eV ==== 
     psi = 0.612*[#  10]+0.335*[#   5]+0.042*[#   9]+0.001*[#   1]
    |psi|^2 = 0.991
==== e(   7) =    -4.10453 eV ==== 
     psi = 0.871*[#  12]+0.119*[#   8]
    |psi|^2 = 0.990
==== e(   8) =    -4.07272 eV ==== 
     psi = 0.883*[#  11]+0.108*[#   7]
    |psi|^2 = 0.992
==== e(   9) =    -3.51693 eV ==== 
     psi = 0.435*[#   5]+0.309*[#   6]+0.236*[#  10]
    |psi|^2 = 0.982
==== e(  10) =    -0.92327 eV ==== 
     psi = 0.571*[#   8]+0.085*[#  12]+0.007*[#   4]
    |psi|^2 = 0.663
==== e(  11) =    -0.32612 eV ==== 
     psi = 0.726*[#   7]+0.090*[#  11]+0.008*[#   3]
    |psi|^2 = 0.824
==== e(  12) =     0.52555 eV ==== 
     psi = 0.173*[#   6]+0.075*[#   5]+0.046*[#  10]+0.033*[#   9]+0.004*[#   2]
          
    |psi|^2 = 0.332
==== e(  13) =     1.09727 eV ==== 
     psi = 0.048*[#   6]+0.005*[#   5]+0.004*[#   9]
    |psi|^2 = 0.058
==== e(  14) =     1.24810 eV ==== 
     psi = 0.056*[#   8]+0.013*[#  12]
    |psi|^2 = 0.070
==== e(  15) =     1.75194 eV ==== 
     psi = 0.111*[#   8]+0.008*[#  12]+0.001*[#   4]
    |psi|^2 = 0.120
==== e(  16) =     2.23285 eV ==== 
 
    |psi|^2 = 0.000
==== e(  17) =     2.50630 eV ==== 
     psi = 0.048*[#   6]+0.022*[#   5]+0.020*[#  10]+0.008*[#   9]+0.001*[#   2]
          
    |psi|^2 = 0.099
==== e(  18) =     2.95029 eV ==== 
     psi = 0.010*[#   8]+0.004*[#  12]
    |psi|^2 = 0.014
==== e(  19) =     2.98809 eV ==== 
     psi = 0.038*[#   6]+0.013*[#   5]+0.005*[#   9]+0.003*[#  10]
    |psi|^2 = 0.060
==== e(  20) =     3.39665 eV ==== 
     psi = 0.058*[#   7]+0.014*[#  11]
    |psi|^2 = 0.073
==== e(  21) =     3.40803 eV ==== 
     psi = 0.014*[#   6]+0.002*[#   9]
    |psi|^2 = 0.019
==== e(  22) =     3.50776 eV ==== 
     psi = 0.001*[#   8]
    |psi|^2 = 0.001
==== e(  23) =     3.63873 eV ==== 
 
    |psi|^2 = 0.000
==== e(  24) =     4.01696 eV ==== 
     psi = 0.002*[#   8]
    |psi|^2 = 0.002
==== e(  25) =     4.09195 eV ==== 
     psi = 0.034*[#   8]+0.005*[#  12]
    |psi|^2 = 0.039
==== e(  26) =     4.21342 eV ==== 
     psi = 0.003*[#   7]+0.001*[#  11]
    |psi|^2 = 0.004
==== e(  27) =     4.22296 eV ==== 
     psi = 0.024*[#   6]+0.010*[#  10]+0.008*[#   5]+0.007*[#   9]
    |psi|^2 = 0.050
==== e(  28) =     5.20126 eV ==== 
     psi = 0.057*[#   6]+0.019*[#  10]+0.010*[#   9]+0.009*[#   5]+0.001*[#   2]
          
    |psi|^2 = 0.096
==== e(  29) =     5.38860 eV ==== 
     psi = 0.008*[#   8]+0.005*[#  12]
    |psi|^2 = 0.013
==== e(  30) =     5.51370 eV ==== 
     psi = 0.027*[#   6]+0.006*[#   5]+0.004*[#   9]+0.004*[#  10]
    |psi|^2 = 0.041
==== e(  31) =     5.64656 eV ==== 
     psi = 0.003*[#   7]+0.001*[#  11]
    |psi|^2 = 0.004
==== e(  32) =     5.67618 eV ==== 
 
    |psi|^2 = 0.000
==== e(  33) =     5.71081 eV ==== 
     psi = 0.010*[#   6]+0.002*[#   9]+0.001*[#  10]
    |psi|^2 = 0.013

 k =   0.0000000000 -0.5000000000 -0.1750000000
==== e(   1) =   -80.36476 eV ==== 
     psi = 0.996*[#   1]+0.003*[#  10]
    |psi|^2 = 1.000
==== e(   2) =   -47.31927 eV ==== 
     psi = 0.985*[#   2]+0.011*[#   6]+0.002*[#  10]+0.001*[#   9]
    |psi|^2 = 1.000
==== e(   3) =   -47.31481 eV ==== 
     psi = 0.989*[#   3]+0.010*[#   7]
    |psi|^2 = 1.000
==== e(   4) =   -47.31480 eV ==== 
     psi = 0.990*[#   4]+0.010*[#   8]
    |psi|^2 = 1.000
==== e(   5) =   -14.15602 eV ==== 
     psi = 0.854*[#   9]+0.076*[#   6]+0.065*[#   5]+0.003*[#  10]
    |psi|^2 = 0.998
==== e(   6) =    -5.80984 eV ==== 
     psi = 0.612*[#  10]+0.335*[#   5]+0.042*[#   9]+0.001*[#   1]
    |psi|^2 = 0.991
==== e(   7) =    -4.10470 eV ==== 
     psi = 0.871*[#  12]+0.119*[#   8]
    |psi|^2 = 0.990
==== e(   8) =    -4.07278 eV ==== 
     psi = 0.883*[#  11]+0.108*[#   7]
    |psi|^2 = 0.992
==== e(   9) =    -3.52238 eV ==== 
     psi = 0.436*[#   5]+0.308*[#   6]+0.236*[#  10]
    |psi|^2 = 0.981
==== e(  10) =    -0.91961 eV ==== 
     psi = 0.570*[#   8]+0.086*[#  12]+0.007*[#   4]
    |psi|^2 = 0.663
==== e(  11) =    -0.32333 eV ==== 
     psi = 0.727*[#   7]+0.090*[#  11]+0.008*[#   3]
    |psi|^2 = 0.825
==== e(  12) =     0.63664 eV ==== 
     psi = 0.174*[#   6]+0.075*[#   5]+0.046*[#  10]+0.032*[#   9]+0.004*[#   2]
          
    |psi|^2 = 0.331
==== e(  13) =     1.05647 eV ==== 
     psi = 0.055*[#   6]+0.010*[#   5]+0.006*[#   9]+0.004*[#  10]
    |psi|^2 = 0.075
==== e(  14) =     1.21763 eV ==== 
     psi = 0.090*[#   8]+0.012*[#  12]+0.001*[#   4]
    |psi|^2 = 0.103
==== e(  15) =     1.84143 eV ==== 
     psi = 0.061*[#   8]+0.006*[#  12]
    |psi|^2 = 0.068
==== e(  16) =     2.21612 eV ==== 
 
    |psi|^2 = 0.000
==== e(  17) =     2.23170 eV ==== 
     psi = 0.044*[#   6]+0.018*[#   5]+0.014*[#  10]+0.008*[#   9]+0.001*[#   2]
          
    |psi|^2 = 0.085
==== e(  18) =     2.69805 eV ==== 
     psi = 0.017*[#   8]+0.004*[#  12]
    |psi|^2 = 0.021
==== e(  19) =     3.05068 eV ==== 
     psi = 0.051*[#   6]+0.012*[#   5]+0.011*[#  10]+0.008*[#   9]+0.001*[#   2]
          
    |psi|^2 = 0.084
==== e(  20) =     3.26811 eV ==== 
     psi = 0.048*[#   7]+0.012*[#  11]
    |psi|^2 = 0.060
==== e(  21) =     3.50886 eV ==== 
     psi = 0.002*[#   6]+0.001*[#  10]
    |psi|^2 = 0.004
==== e(  22) =     3.52599 eV ==== 
     psi = 0.036*[#   8]+0.005*[#  12]
    |psi|^2 = 0.041
==== e(  23) =     3.79469 eV ==== 
 
    |psi|^2 = 0.000
==== e(  24) =     4.19515 eV ==== 
     psi = 0.008*[#   8]+0.002*[#  12]
    |psi|^2 = 0.011
==== e(  25) =     4.30281 eV ==== 
     psi = 0.002*[#   8]+0.001*[#  12]
    |psi|^2 = 0.003
==== e(  26) =     4.40328 eV ==== 
     psi = 0.006*[#   6]+0.004*[#  10]+0.003*[#   5]
    |psi|^2 = 0.013
==== e(  27) =     4.45576 eV ==== 
     psi = 0.010*[#   7]+0.004*[#  11]
    |psi|^2 = 0.014
==== e(  28) =     4.86459 eV ==== 
     psi = 0.061*[#   6]+0.015*[#  10]+0.014*[#   5]+0.012*[#   9]+0.001*[#   2]
          
    |psi|^2 = 0.103
==== e(  29) =     4.95076 eV ==== 
 
    |psi|^2 = 0.000
==== e(  30) =     5.30657 eV ==== 
     psi = 0.004*[#   8]+0.002*[#  12]
    |psi|^2 = 0.006
==== e(  31) =     5.44597 eV ==== 
     psi = 0.010*[#   6]+0.005*[#  10]+0.002*[#   9]+0.001*[#   5]
    |psi|^2 = 0.018
==== e(  32) =     5.68985 eV ==== 
     psi = 0.003*[#   7]+0.002*[#  11]
    |psi|^2 = 0.005
==== e(  33) =     5.93483 eV ==== 
     psi = 0.007*[#   8]+0.003*[#  12]
    |psi|^2 = 0.011

 k =   0.0000000000 -0.2500000000  0.0000000000
==== e(   1) =   -80.36476 eV ==== 
     psi = 0.996*[#   1]+0.003*[#  10]
    |psi|^2 = 1.000
==== e(   2) =   -47.31927 eV ==== 
     psi = 0.985*[#   2]+0.011*[#   6]+0.002*[#  10]+0.001*[#   9]
    |psi|^2 = 1.000
==== e(   3) =   -47.31481 eV ==== 
     psi = 0.989*[#   3]+0.010*[#   7]
    |psi|^2 = 1.000
==== e(   4) =   -47.31480 eV ==== 
     psi = 0.990*[#   4]+0.010*[#   8]
    |psi|^2 = 1.000
==== e(   5) =   -14.15610 eV ==== 
     psi = 0.854*[#   9]+0.076*[#   6]+0.065*[#   5]+0.003*[#  10]
    |psi|^2 = 0.998
==== e(   6) =    -5.81244 eV ==== 
     psi = 0.610*[#  10]+0.337*[#   5]+0.042*[#   9]+0.001*[#   1]
    |psi|^2 = 0.991
==== e(   7) =    -4.09039 eV ==== 
     psi = 0.876*[#  12]+0.114*[#   8]
    |psi|^2 = 0.991
==== e(   8) =    -4.07413 eV ==== 
     psi = 0.883*[#  11]+0.109*[#   7]
    |psi|^2 = 0.992
==== e(   9) =    -3.54897 eV ==== 
     psi = 0.434*[#   5]+0.303*[#   6]+0.237*[#  10]
    |psi|^2 = 0.978
==== e(  10) =    -0.70667 eV ==== 
     psi = 0.591*[#   8]+0.083*[#  12]+0.007*[#   4]+0.004*[#   6]
    |psi|^2 = 0.685
==== e(  11) =    -0.35073 eV ==== 
     psi = 0.719*[#   7]+0.090*[#  11]+0.008*[#   3]
    |psi|^2 = 0.817
==== e(  12) =     0.55947 eV ==== 
     psi = 0.058*[#   8]+0.034*[#   6]+0.006*[#  12]+0.003*[#   9]
    |psi|^2 = 0.103
==== e(  13) =     0.63202 eV ==== 
     psi = 0.191*[#   6]+0.084*[#   5]+0.048*[#  10]+0.033*[#   9]+0.004*[#   2]
          
    |psi|^2 = 0.362
==== e(  14) =     1.54193 eV ==== 
     psi = 0.019*[#   8]+0.004*[#   6]+0.003*[#   5]+0.003*[#  10]+0.001*[#   9]
          +0.001*[#  12]
    |psi|^2 = 0.032
==== e(  15) =     1.72693 eV ==== 
     psi = 0.068*[#   8]+0.008*[#  12]+0.007*[#   6]+0.002*[#   9]+0.002*[#   5]
          +0.001*[#  10]
    |psi|^2 = 0.089
==== e(  16) =     2.22974 eV ==== 
     psi = 0.004*[#  10]+0.004*[#   6]+0.003*[#   5]+0.001*[#   9]+0.001*[#  12]
          
    |psi|^2 = 0.014
==== e(  17) =     2.46214 eV ==== 
     psi = 0.013*[#   7]+0.001*[#  11]
    |psi|^2 = 0.015
==== e(  18) =     2.57185 eV ==== 
     psi = 0.062*[#   6]+0.015*[#   5]+0.011*[#  10]+0.010*[#   9]+0.001*[#   8]
          +0.001*[#   2]+0.001*[#  12]
    |psi|^2 = 0.101
==== e(  19) =     3.04034 eV ==== 
     psi = 0.034*[#   7]+0.008*[#  11]
    |psi|^2 = 0.042
==== e(  20) =     3.17430 eV ==== 
     psi = 0.006*[#   8]+0.002*[#  10]
    |psi|^2 = 0.010
==== e(  21) =     3.19772 eV ==== 
     psi = 0.018*[#   6]+0.011*[#   8]+0.009*[#  10]+0.005*[#   5]+0.003*[#   9]
          +0.002*[#  12]
    |psi|^2 = 0.049
==== e(  22) =     3.81495 eV ==== 
     psi = 0.023*[#   6]+0.005*[#  10]+0.004*[#   9]+0.004*[#   5]+0.004*[#   8]
          
    |psi|^2 = 0.040
==== e(  23) =     4.13217 eV ==== 
     psi = 0.005*[#   7]+0.003*[#  11]
    |psi|^2 = 0.008
==== e(  24) =     4.16805 eV ==== 
     psi = 0.022*[#   8]+0.006*[#  12]
    |psi|^2 = 0.030
==== e(  25) =     4.48511 eV ==== 
     psi = 0.002*[#   8]
    |psi|^2 = 0.004
==== e(  26) =     4.49214 eV ==== 
     psi = 0.002*[#  11]+0.001*[#   7]
    |psi|^2 = 0.003
==== e(  27) =     4.75976 eV ==== 
     psi = 0.028*[#   6]+0.009*[#   5]+0.004*[#  10]+0.003*[#   9]
    |psi|^2 = 0.044
==== e(  28) =     4.95718 eV ==== 
     psi = 0.012*[#   7]+0.001*[#  11]
    |psi|^2 = 0.013
==== e(  29) =     5.12399 eV ==== 
     psi = 0.001*[#   8]
    |psi|^2 = 0.003
==== e(  30) =     5.22098 eV ==== 
     psi = 0.014*[#   7]+0.002*[#  11]
    |psi|^2 = 0.016
==== e(  31) =     5.29618 eV ==== 
     psi = 0.002*[#   6]+0.002*[#   5]+0.001*[#  10]
    |psi|^2 = 0.007
==== e(  32) =     5.56920 eV ==== 
     psi = 0.013*[#   6]+0.003*[#   5]+0.002*[#   9]+0.001*[#  10]
    |psi|^2 = 0.020
==== e(  33) =     5.64000 eV ==== 
     psi = 0.010*[#   8]+0.001*[#   6]
    |psi|^2 = 0.013

 k =   0.0000000000 -0.2500000000  0.1750000000
==== e(   1) =   -80.36476 eV ==== 
     psi = 0.996*[#   1]+0.003*[#  10]
    |psi|^2 = 1.000
==== e(   2) =   -47.31927 eV ==== 
     psi = 0.985*[#   2]+0.011*[#   6]+0.002*[#  10]+0.001*[#   9]
    |psi|^2 = 1.000
==== e(   3) =   -47.31481 eV ==== 
     psi = 0.989*[#   3]+0.010*[#   7]
    |psi|^2 = 1.000
==== e(   4) =   -47.31480 eV ==== 
     psi = 0.990*[#   4]+0.010*[#   8]
    |psi|^2 = 1.000
==== e(   5) =   -14.15609 eV ==== 
     psi = 0.854*[#   9]+0.076*[#   6]+0.065*[#   5]+0.003*[#  10]
    |psi|^2 = 0.998
==== e(   6) =    -5.81332 eV ==== 
     psi = 0.610*[#  10]+0.337*[#   5]+0.042*[#   9]+0.001*[#   1]
    |psi|^2 = 0.991
==== e(   7) =    -4.09026 eV ==== 
     psi = 0.876*[#  12]+0.114*[#   8]
    |psi|^2 = 0.991
==== e(   8) =    -4.07406 eV ==== 
     psi = 0.883*[#  11]+0.109*[#   7]
    |psi|^2 = 0.992
==== e(   9) =    -3.54326 eV ==== 
     psi = 0.434*[#   5]+0.304*[#   6]+0.238*[#  10]
    |psi|^2 = 0.979
==== e(  10) =    -0.70946 eV ==== 
     psi = 0.592*[#   8]+0.083*[#  12]+0.007*[#   4]+0.003*[#   6]
    |psi|^2 = 0.685
==== e(  11) =    -0.35365 eV ==== 
     psi = 0.718*[#   7]+0.090*[#  11]+0.008*[#   3]
    |psi|^2 = 0.816
==== e(  12) =     0.37667 eV ==== 
     psi = 0.127*[#   6]+0.055*[#   5]+0.032*[#  10]+0.023*[#   9]+0.011*[#   8]
          +0.003*[#   2]+0.001*[#  12]
    |psi|^2 = 0.253
==== e(  13) =     0.72963 eV ==== 
     psi = 0.081*[#   6]+0.050*[#   8]+0.020*[#   5]+0.010*[#   9]+0.009*[#  10]
          +0.005*[#  12]+0.002*[#   2]
    |psi|^2 = 0.177
==== e(  14) =     1.61346 eV ==== 
     psi = 0.045*[#   8]+0.009*[#   6]+0.005*[#   5]+0.005*[#  12]+0.004*[#  10]
          +0.002*[#   9]
    |psi|^2 = 0.071
==== e(  15) =     1.88725 eV ==== 
     psi = 0.043*[#   8]+0.015*[#   6]+0.009*[#   5]+0.008*[#  10]+0.006*[#  12]
          +0.003*[#   9]
    |psi|^2 = 0.085
==== e(  16) =     2.09787 eV ==== 
     psi = 0.023*[#   6]+0.007*[#   5]+0.005*[#  10]+0.004*[#   9]
    |psi|^2 = 0.042
==== e(  17) =     2.48860 eV ==== 
     psi = 0.011*[#   7]+0.001*[#  11]
    |psi|^2 = 0.013
==== e(  18) =     2.76968 eV ==== 
     psi = 0.040*[#   6]+0.009*[#   5]+0.006*[#   9]+0.005*[#  10]+0.004*[#   8]
          
    |psi|^2 = 0.065
==== e(  19) =     2.97371 eV ==== 
     psi = 0.014*[#   6]+0.009*[#  10]+0.005*[#   5]+0.003*[#   9]+0.002*[#   8]
          
    |psi|^2 = 0.034
==== e(  20) =     3.08544 eV ==== 
     psi = 0.038*[#   7]+0.009*[#  11]
    |psi|^2 = 0.047
==== e(  21) =     3.30058 eV ==== 
     psi = 0.009*[#   8]+0.003*[#  12]
    |psi|^2 = 0.014
==== e(  22) =     3.79126 eV ==== 
     psi = 0.005*[#   8]+0.003*[#   6]+0.002*[#   5]+0.001*[#  10]+0.001*[#  12]
          
    |psi|^2 = 0.014
==== e(  23) =     3.97348 eV ==== 
     psi = 0.010*[#   7]+0.003*[#  11]
    |psi|^2 = 0.014
==== e(  24) =     4.23021 eV ==== 
     psi = 0.021*[#   6]+0.011*[#   8]+0.006*[#   5]+0.004*[#  10]+0.003*[#   9]
          +0.003*[#  12]
    |psi|^2 = 0.048
==== e(  25) =     4.39820 eV ==== 
     psi = 0.009*[#   6]+0.005*[#   8]+0.004*[#  10]+0.002*[#   5]+0.002*[#  12]
          +0.002*[#   9]
    |psi|^2 = 0.024
==== e(  26) =     4.45094 eV ==== 
     psi = 0.001*[#  11]+0.001*[#   7]
    |psi|^2 = 0.002
==== e(  27) =     4.66233 eV ==== 
     psi = 0.041*[#   6]+0.009*[#  10]+0.008*[#   5]+0.008*[#   9]+0.005*[#   8]
          
    |psi|^2 = 0.072
==== e(  28) =     4.89549 eV ==== 
     psi = 0.006*[#   6]+0.002*[#   5]+0.001*[#  10]+0.001*[#   9]
    |psi|^2 = 0.011
==== e(  29) =     4.90516 eV ==== 
     psi = 0.011*[#   7]+0.002*[#  11]
    |psi|^2 = 0.012
==== e(  30) =     5.16891 eV ==== 
     psi = 0.007*[#   6]+0.007*[#   8]+0.001*[#   5]
    |psi|^2 = 0.018
==== e(  31) =     5.34458 eV ==== 
     psi = 0.004*[#   7]
    |psi|^2 = 0.005
==== e(  32) =     5.43836 eV ==== 
     psi = 0.004*[#   6]+0.001*[#   8]
    |psi|^2 = 0.008
==== e(  33) =     5.72635 eV ==== 
     psi = 0.002*[#   8]
    |psi|^2 = 0.003

 k =   0.0000000000 -0.2500000000 -0.3500000000
==== e(   1) =   -80.36476 eV ==== 
     psi = 0.996*[#   1]+0.003*[#  10]
    |psi|^2 = 1.000
==== e(   2) =   -47.31927 eV ==== 
     psi = 0.985*[#   2]+0.011*[#   6]+0.002*[#  10]+0.001*[#   9]
    |psi|^2 = 1.000
==== e(   3) =   -47.31480 eV ==== 
     psi = 0.989*[#   3]+0.010*[#   7]
    |psi|^2 = 1.000
==== e(   4) =   -47.31480 eV ==== 
     psi = 0.990*[#   4]+0.010*[#   8]
    |psi|^2 = 1.000
==== e(   5) =   -14.15609 eV ==== 
     psi = 0.854*[#   9]+0.076*[#   6]+0.065*[#   5]+0.003*[#  10]
    |psi|^2 = 0.998
==== e(   6) =    -5.81419 eV ==== 
     psi = 0.609*[#  10]+0.338*[#   5]+0.042*[#   9]+0.001*[#   1]
    |psi|^2 = 0.991
==== e(   7) =    -4.09014 eV ==== 
     psi = 0.876*[#  12]+0.114*[#   8]
    |psi|^2 = 0.991
==== e(   8) =    -4.07399 eV ==== 
     psi = 0.883*[#  11]+0.109*[#   7]
    |psi|^2 = 0.992
==== e(   9) =    -3.53751 eV ==== 
     psi = 0.434*[#   5]+0.305*[#   6]+0.238*[#  10]
    |psi|^2 = 0.980
==== e(  10) =    -0.71225 eV ==== 
     psi = 0.594*[#   8]+0.082*[#  12]+0.007*[#   4]+0.003*[#   6]
    |psi|^2 = 0.686
==== e(  11) =    -0.35656 eV ==== 
     psi = 0.717*[#   7]+0.089*[#  11]+0.008*[#   3]
    |psi|^2 = 0.815
==== e(  12) =     0.27241 eV ==== 
     psi = 0.137*[#   6]+0.062*[#   5]+0.037*[#  10]+0.026*[#   9]+0.003*[#   2]
          +0.002*[#   8]
    |psi|^2 = 0.270
==== e(  13) =     0.76623 eV ==== 
     psi = 0.060*[#   6]+0.057*[#   8]+0.006*[#   5]+0.006*[#   9]+0.006*[#  12]
          +0.001*[#  10]
    |psi|^2 = 0.138
==== e(  14) =     1.72070 eV ==== 
     psi = 0.069*[#   8]+0.016*[#   6]+0.010*[#  12]+0.008*[#   5]+0.007*[#  10]
          +0.003*[#   9]
    |psi|^2 = 0.115
==== e(  15) =     1.78544 eV ==== 
     psi = 0.015*[#   6]+0.014*[#   8]+0.007*[#   5]+0.007*[#  10]+0.003*[#   9]
          
    |psi|^2 = 0.046
==== e(  16) =     2.33024 eV ==== 
     psi = 0.033*[#   6]+0.015*[#   5]+0.011*[#  10]+0.009*[#   8]+0.005*[#   9]
          +0.002*[#  12]
    |psi|^2 = 0.076
==== e(  17) =     2.51691 eV ==== 
     psi = 0.010*[#   7]+0.001*[#  11]
    |psi|^2 = 0.011
==== e(  18) =     2.73538 eV ==== 
     psi = 0.015*[#   6]+0.005*[#   8]+0.005*[#   5]+0.002*[#   9]
    |psi|^2 = 0.028
==== e(  19) =     3.05754 eV ==== 
     psi = 0.003*[#   6]+0.001*[#   8]
    |psi|^2 = 0.005
==== e(  20) =     3.13248 eV ==== 
     psi = 0.042*[#   7]+0.010*[#  11]
    |psi|^2 = 0.053
==== e(  21) =     3.36576 eV ==== 
     psi = 0.029*[#   6]+0.010*[#   5]+0.009*[#  10]+0.006*[#   9]
    |psi|^2 = 0.057
==== e(  22) =     3.45059 eV ==== 
     psi = 0.013*[#   8]+0.004*[#  12]
    |psi|^2 = 0.018
==== e(  23) =     3.88364 eV ==== 
     psi = 0.017*[#   7]+0.005*[#  11]
    |psi|^2 = 0.022
==== e(  24) =     4.23965 eV ==== 
     psi = 0.025*[#   6]+0.007*[#   5]+0.006*[#  10]+0.005*[#   9]+0.002*[#   8]
          
    |psi|^2 = 0.045
==== e(  25) =     4.30364 eV ==== 
     psi = 0.010*[#   6]+0.005*[#  10]+0.004*[#   8]+0.002*[#   9]+0.002*[#  12]
          +0.002*[#   5]
    |psi|^2 = 0.025
==== e(  26) =     4.34063 eV ==== 
 
    |psi|^2 = 0.000
==== e(  27) =     4.67002 eV ==== 
     psi = 0.024*[#   6]+0.006*[#  10]+0.005*[#   5]+0.004*[#   9]+0.003*[#   8]
          
    |psi|^2 = 0.043
==== e(  28) =     4.77133 eV ==== 
     psi = 0.003*[#   7]
    |psi|^2 = 0.003
==== e(  29) =     5.06674 eV ==== 
     psi = 0.034*[#   6]+0.006*[#   5]+0.006*[#  10]+0.005*[#   9]
    |psi|^2 = 0.052
==== e(  30) =     5.16120 eV ==== 
     psi = 0.020*[#   8]+0.006*[#   6]+0.003*[#  12]+0.001*[#   9]
    |psi|^2 = 0.031
==== e(  31) =     5.51504 eV ==== 
     psi = 0.010*[#   6]+0.004*[#   8]+0.002*[#   9]+0.002*[#  10]+0.001*[#   5]
          
    |psi|^2 = 0.020
==== e(  32) =     5.63997 eV ==== 
 
    |psi|^2 = 0.002
==== e(  33) =     5.91116 eV ==== 
     psi = 0.004*[#   7]+0.002*[#  11]
    |psi|^2 = 0.006

 k =   0.0000000000 -0.2500000000 -0.1750000000
==== e(   1) =   -80.36476 eV ==== 
     psi = 0.996*[#   1]+0.003*[#  10]
    |psi|^2 = 1.000
==== e(   2) =   -47.31927 eV ==== 
     psi = 0.985*[#   2]+0.011*[#   6]+0.002*[#  10]+0.001*[#   9]
    |psi|^2 = 1.000
==== e(   3) =   -47.31481 eV ==== 
     psi = 0.989*[#   3]+0.010*[#   7]
    |psi|^2 = 1.000
==== e(   4) =   -47.31480 eV ==== 
     psi = 0.990*[#   4]+0.010*[#   8]
    |psi|^2 = 1.000
==== e(   5) =   -14.15609 eV ==== 
     psi = 0.854*[#   9]+0.076*[#   6]+0.065*[#   5]+0.003*[#  10]
    |psi|^2 = 0.998
==== e(   6) =    -5.81332 eV ==== 
     psi = 0.610*[#  10]+0.337*[#   5]+0.042*[#   9]+0.001*[#   1]
    |psi|^2 = 0.991
==== e(   7) =    -4.09026 eV ==== 
     psi = 0.876*[#  12]+0.114*[#   8]
    |psi|^2 = 0.991
==== e(   8) =    -4.07406 eV ==== 
     psi = 0.883*[#  11]+0.109*[#   7]
    |psi|^2 = 0.992
==== e(   9) =    -3.54326 eV ==== 
     psi = 0.434*[#   5]+0.304*[#   6]+0.238*[#  10]
    |psi|^2 = 0.979
==== e(  10) =    -0.70946 eV ==== 
     psi = 0.592*[#   8]+0.083*[#  12]+0.007*[#   4]+0.003*[#   6]
    |psi|^2 = 0.685
==== e(  11) =    -0.35365 eV ==== 
     psi = 0.718*[#   7]+0.090*[#  11]+0.008*[#   3]
    |psi|^2 = 0.816
==== e(  12) =     0.37667 eV ==== 
     psi = 0.127*[#   6]+0.055*[#   5]+0.032*[#  10]+0.023*[#   9]+0.011*[#   8]
          +0.003*[#   2]+0.001*[#  12]
    |psi|^2 = 0.253
==== e(  13) =     0.72963 eV ==== 
     psi = 0.081*[#   6]+0.050*[#   8]+0.020*[#   5]+0.010*[#   9]+0.009*[#  10]
          +0.005*[#  12]+0.002*[#   2]
    |psi|^2 = 0.177
==== e(  14) =     1.61346 eV ==== 
     psi = 0.045*[#   8]+0.009*[#   6]+0.005*[#   5]+0.005*[#  12]+0.004*[#  10]
          +0.002*[#   9]
    |psi|^2 = 0.071
==== e(  15) =     1.88725 eV ==== 
     psi = 0.043*[#   8]+0.015*[#   6]+0.009*[#   5]+0.008*[#  10]+0.006*[#  12]
          +0.003*[#   9]
    |psi|^2 = 0.085
==== e(  16) =     2.09787 eV ==== 
     psi = 0.023*[#   6]+0.007*[#   5]+0.005*[#  10]+0.004*[#   9]
    |psi|^2 = 0.042
==== e(  17) =     2.48860 eV ==== 
     psi = 0.011*[#   7]+0.001*[#  11]
    |psi|^2 = 0.013
==== e(  18) =     2.76968 eV ==== 
     psi = 0.040*[#   6]+0.009*[#   5]+0.006*[#   9]+0.005*[#  10]+0.004*[#   8]
          
    |psi|^2 = 0.065
==== e(  19) =     2.97371 eV ==== 
     psi = 0.014*[#   6]+0.009*[#  10]+0.005*[#   5]+0.003*[#   9]+0.002*[#   8]
          
    |psi|^2 = 0.034
==== e(  20) =     3.08544 eV ==== 
     psi = 0.038*[#   7]+0.009*[#  11]
    |psi|^2 = 0.047
==== e(  21) =     3.30058 eV ==== 
     psi = 0.009*[#   8]+0.003*[#  12]
    |psi|^2 = 0.014
==== e(  22) =     3.79126 eV ==== 
     psi = 0.005*[#   8]+0.003*[#   6]+0.002*[#   5]+0.001*[#  10]+0.001*[#  12]
          
    |psi|^2 = 0.014
==== e(  23) =     3.97348 eV ==== 
     psi = 0.010*[#   7]+0.003*[#  11]
    |psi|^2 = 0.014
==== e(  24) =     4.23021 eV ==== 
     psi = 0.021*[#   6]+0.011*[#   8]+0.006*[#   5]+0.004*[#  10]+0.003*[#   9]
          +0.003*[#  12]
    |psi|^2 = 0.048
==== e(  25) =     4.39820 eV ==== 
     psi = 0.009*[#   6]+0.005*[#   8]+0.004*[#  10]+0.002*[#   5]+0.002*[#  12]
          +0.002*[#   9]
    |psi|^2 = 0.024
==== e(  26) =     4.45094 eV ==== 
     psi = 0.001*[#  11]+0.001*[#   7]
    |psi|^2 = 0.002
==== e(  27) =     4.66233 eV ==== 
     psi = 0.041*[#   6]+0.009*[#  10]+0.008*[#   5]+0.008*[#   9]+0.005*[#   8]
          
    |psi|^2 = 0.072
==== e(  28) =     4.89549 eV ==== 
     psi = 0.006*[#   6]+0.002*[#   5]+0.001*[#  10]+0.001*[#   9]
    |psi|^2 = 0.011
==== e(  29) =     4.90516 eV ==== 
     psi = 0.011*[#   7]+0.002*[#  11]
    |psi|^2 = 0.012
==== e(  30) =     5.16891 eV ==== 
     psi = 0.007*[#   6]+0.007*[#   8]+0.001*[#   5]
    |psi|^2 = 0.018
==== e(  31) =     5.34458 eV ==== 
     psi = 0.004*[#   7]
    |psi|^2 = 0.005
==== e(  32) =     5.43836 eV ==== 
     psi = 0.004*[#   6]+0.001*[#   8]
    |psi|^2 = 0.008
==== e(  33) =     5.72635 eV ==== 
     psi = 0.002*[#   8]
    |psi|^2 = 0.003

 k =   0.2500000000  0.0000000000  0.0000000000
==== e(   1) =   -80.36476 eV ==== 
     psi = 0.996*[#   1]+0.003*[#  10]
    |psi|^2 = 1.000
==== e(   2) =   -47.31927 eV ==== 
     psi = 0.985*[#   2]+0.011*[#   6]+0.002*[#  10]+0.001*[#   9]
    |psi|^2 = 1.000
==== e(   3) =   -47.31481 eV ==== 
     psi = 0.989*[#   4]+0.010*[#   8]
    |psi|^2 = 1.000
==== e(   4) =   -47.31480 eV ==== 
     psi = 0.990*[#   3]+0.010*[#   7]
    |psi|^2 = 1.000
==== e(   5) =   -14.15610 eV ==== 
     psi = 0.854*[#   9]+0.076*[#   6]+0.065*[#   5]+0.003*[#  10]
    |psi|^2 = 0.998
==== e(   6) =    -5.81244 eV ==== 
     psi = 0.610*[#  10]+0.337*[#   5]+0.042*[#   9]+0.001*[#   1]
    |psi|^2 = 0.991
==== e(   7) =    -4.09039 eV ==== 
     psi = 0.876*[#  11]+0.114*[#   7]
    |psi|^2 = 0.991
==== e(   8) =    -4.07413 eV ==== 
     psi = 0.883*[#  12]+0.109*[#   8]
    |psi|^2 = 0.992
==== e(   9) =    -3.54897 eV ==== 
     psi = 0.434*[#   5]+0.303*[#   6]+0.237*[#  10]
    |psi|^2 = 0.978
==== e(  10) =    -0.70667 eV ==== 
     psi = 0.591*[#   7]+0.083*[#  11]+0.007*[#   3]+0.004*[#   6]
    |psi|^2 = 0.685
==== e(  11) =    -0.35073 eV ==== 
     psi = 0.719*[#   8]+0.090*[#  12]+0.008*[#   4]
    |psi|^2 = 0.817
==== e(  12) =     0.55947 eV ==== 
     psi = 0.058*[#   7]+0.034*[#   6]+0.006*[#  11]+0.003*[#   9]
    |psi|^2 = 0.103
==== e(  13) =     0.63202 eV ==== 
     psi = 0.191*[#   6]+0.084*[#   5]+0.048*[#  10]+0.033*[#   9]+0.004*[#   2]
          
    |psi|^2 = 0.362
==== e(  14) =     1.54193 eV ==== 
     psi = 0.019*[#   7]+0.004*[#   6]+0.003*[#   5]+0.003*[#  10]+0.001*[#   9]
          +0.001*[#  11]
    |psi|^2 = 0.032
==== e(  15) =     1.72693 eV ==== 
     psi = 0.068*[#   7]+0.008*[#  11]+0.007*[#   6]+0.002*[#   9]+0.002*[#   5]
          +0.001*[#  10]
    |psi|^2 = 0.089
==== e(  16) =     2.22974 eV ==== 
     psi = 0.004*[#  10]+0.004*[#   6]+0.003*[#   5]+0.001*[#   9]+0.001*[#  11]
          
    |psi|^2 = 0.014
==== e(  17) =     2.46214 eV ==== 
     psi = 0.013*[#   8]+0.001*[#  12]
    |psi|^2 = 0.015
==== e(  18) =     2.57185 eV ==== 
     psi = 0.062*[#   6]+0.015*[#   5]+0.011*[#  10]+0.010*[#   9]+0.001*[#   7]
          +0.001*[#   2]+0.001*[#  11]
    |psi|^2 = 0.101
==== e(  19) =     3.04034 eV ==== 
     psi = 0.034*[#   8]+0.008*[#  12]
    |psi|^2 = 0.042
==== e(  20) =     3.17430 eV ==== 
     psi = 0.006*[#   7]+0.002*[#  10]
    |psi|^2 = 0.010
==== e(  21) =     3.19772 eV ==== 
     psi = 0.018*[#   6]+0.011*[#   7]+0.009*[#  10]+0.005*[#   5]+0.003*[#   9]
          +0.002*[#  11]
    |psi|^2 = 0.049
==== e(  22) =     3.81495 eV ==== 
     psi = 0.023*[#   6]+0.005*[#  10]+0.004*[#   9]+0.004*[#   5]+0.004*[#   7]
          
    |psi|^2 = 0.040
==== e(  23) =     4.13217 eV ==== 
     psi = 0.005*[#   8]+0.003*[#  12]
    |psi|^2 = 0.008
==== e(  24) =     4.16805 eV ==== 
     psi = 0.022*[#   7]+0.006*[#  11]
    |psi|^2 = 0.030
==== e(  25) =     4.48511 eV ==== 
     psi = 0.002*[#   7]
    |psi|^2 = 0.004
==== e(  26) =     4.49214 eV ==== 
     psi = 0.002*[#  12]+0.001*[#   8]
    |psi|^2 = 0.003
==== e(  27) =     4.75976 eV ==== 
     psi = 0.028*[#   6]+0.009*[#   5]+0.004*[#  10]+0.003*[#   9]
    |psi|^2 = 0.044
==== e(  28) =     4.95718 eV ==== 
     psi = 0.012*[#   8]+0.001*[#  12]
    |psi|^2 = 0.013
==== e(  29) =     5.12399 eV ==== 
     psi = 0.001*[#   7]
    |psi|^2 = 0.003
==== e(  30) =     5.22098 eV ==== 
     psi = 0.014*[#   8]+0.002*[#  12]
    |psi|^2 = 0.016
==== e(  31) =     5.29618 eV ==== 
     psi = 0.002*[#   6]+0.002*[#   5]+0.001*[#  10]
    |psi|^2 = 0.007
==== e(  32) =     5.56920 eV ==== 
     psi = 0.013*[#   6]+0.003*[#   5]+0.002*[#   9]+0.001*[#  10]
    |psi|^2 = 0.020
==== e(  33) =     5.64000 eV ==== 
     psi = 0.010*[#   7]+0.001*[#   6]
    |psi|^2 = 0.013

 k =   0.2500000000  0.0000000000  0.1750000000
==== e(   1) =   -80.36476 eV ==== 
     psi = 0.996*[#   1]+0.003*[#  10]
    |psi|^2 = 1.000
==== e(   2) =   -47.31927 eV ==== 
     psi = 0.985*[#   2]+0.011*[#   6]+0.002*[#  10]+0.001*[#   9]
    |psi|^2 = 1.000
==== e(   3) =   -47.31481 eV ==== 
     psi = 0.989*[#   4]+0.010*[#   8]
    |psi|^2 = 1.000
==== e(   4) =   -47.31480 eV ==== 
     psi = 0.990*[#   3]+0.010*[#   7]
    |psi|^2 = 1.000
==== e(   5) =   -14.15609 eV ==== 
     psi = 0.854*[#   9]+0.076*[#   6]+0.065*[#   5]+0.003*[#  10]
    |psi|^2 = 0.998
==== e(   6) =    -5.81332 eV ==== 
     psi = 0.610*[#  10]+0.337*[#   5]+0.042*[#   9]+0.001*[#   1]
    |psi|^2 = 0.991
==== e(   7) =    -4.09026 eV ==== 
     psi = 0.876*[#  11]+0.114*[#   7]
    |psi|^2 = 0.991
==== e(   8) =    -4.07406 eV ==== 
     psi = 0.883*[#  12]+0.109*[#   8]
    |psi|^2 = 0.992
==== e(   9) =    -3.54326 eV ==== 
     psi = 0.434*[#   5]+0.304*[#   6]+0.238*[#  10]
    |psi|^2 = 0.979
==== e(  10) =    -0.70946 eV ==== 
     psi = 0.592*[#   7]+0.083*[#  11]+0.007*[#   3]+0.003*[#   6]
    |psi|^2 = 0.685
==== e(  11) =    -0.35365 eV ==== 
     psi = 0.718*[#   8]+0.090*[#  12]+0.008*[#   4]
    |psi|^2 = 0.816
==== e(  12) =     0.37667 eV ==== 
     psi = 0.127*[#   6]+0.055*[#   5]+0.032*[#  10]+0.023*[#   9]+0.011*[#   7]
          +0.003*[#   2]+0.001*[#  11]
    |psi|^2 = 0.253
==== e(  13) =     0.72963 eV ==== 
     psi = 0.081*[#   6]+0.050*[#   7]+0.020*[#   5]+0.010*[#   9]+0.009*[#  10]
          +0.005*[#  11]+0.002*[#   2]
    |psi|^2 = 0.177
==== e(  14) =     1.61346 eV ==== 
     psi = 0.045*[#   7]+0.009*[#   6]+0.005*[#   5]+0.005*[#  11]+0.004*[#  10]
          +0.002*[#   9]
    |psi|^2 = 0.071
==== e(  15) =     1.88725 eV ==== 
     psi = 0.043*[#   7]+0.015*[#   6]+0.009*[#   5]+0.008*[#  10]+0.006*[#  11]
          +0.003*[#   9]
    |psi|^2 = 0.085
==== e(  16) =     2.09787 eV ==== 
     psi = 0.023*[#   6]+0.007*[#   5]+0.005*[#  10]+0.004*[#   9]
    |psi|^2 = 0.042
==== e(  17) =     2.48860 eV ==== 
     psi = 0.011*[#   8]+0.001*[#  12]
    |psi|^2 = 0.013
==== e(  18) =     2.76968 eV ==== 
     psi = 0.040*[#   6]+0.009*[#   5]+0.006*[#   9]+0.005*[#  10]+0.004*[#   7]
          
    |psi|^2 = 0.065
==== e(  19) =     2.97371 eV ==== 
     psi = 0.014*[#   6]+0.009*[#  10]+0.005*[#   5]+0.003*[#   9]+0.002*[#   7]
          
    |psi|^2 = 0.034
==== e(  20) =     3.08544 eV ==== 
     psi = 0.038*[#   8]+0.009*[#  12]
    |psi|^2 = 0.047
==== e(  21) =     3.30058 eV ==== 
     psi = 0.009*[#   7]+0.003*[#  11]
    |psi|^2 = 0.014
==== e(  22) =     3.79126 eV ==== 
     psi = 0.005*[#   7]+0.003*[#   6]+0.002*[#   5]+0.001*[#  10]+0.001*[#  11]
          
    |psi|^2 = 0.014
==== e(  23) =     3.97348 eV ==== 
     psi = 0.010*[#   8]+0.003*[#  12]
    |psi|^2 = 0.014
==== e(  24) =     4.23021 eV ==== 
     psi = 0.021*[#   6]+0.011*[#   7]+0.006*[#   5]+0.004*[#  10]+0.003*[#   9]
          +0.003*[#  11]
    |psi|^2 = 0.048
==== e(  25) =     4.39820 eV ==== 
     psi = 0.009*[#   6]+0.005*[#   7]+0.004*[#  10]+0.002*[#   5]+0.002*[#  11]
          +0.002*[#   9]
    |psi|^2 = 0.024
==== e(  26) =     4.45094 eV ==== 
     psi = 0.001*[#  12]+0.001*[#   8]
    |psi|^2 = 0.002
==== e(  27) =     4.66233 eV ==== 
     psi = 0.041*[#   6]+0.009*[#  10]+0.008*[#   5]+0.008*[#   9]+0.005*[#   7]
          
    |psi|^2 = 0.072
==== e(  28) =     4.89549 eV ==== 
     psi = 0.006*[#   6]+0.002*[#   5]+0.001*[#  10]+0.001*[#   9]
    |psi|^2 = 0.011
==== e(  29) =     4.90516 eV ==== 
     psi = 0.011*[#   8]+0.002*[#  12]
    |psi|^2 = 0.012
==== e(  30) =     5.16891 eV ==== 
     psi = 0.007*[#   6]+0.007*[#   7]+0.001*[#   5]
    |psi|^2 = 0.018
==== e(  31) =     5.34458 eV ==== 
     psi = 0.004*[#   8]
    |psi|^2 = 0.005
==== e(  32) =     5.43836 eV ==== 
     psi = 0.004*[#   6]+0.001*[#   7]
    |psi|^2 = 0.008
==== e(  33) =     5.72635 eV ==== 
     psi = 0.002*[#   7]
    |psi|^2 = 0.003

 k =   0.2500000000  0.0000000000 -0.3500000000
==== e(   1) =   -80.36476 eV ==== 
     psi = 0.996*[#   1]+0.003*[#  10]
    |psi|^2 = 1.000
==== e(   2) =   -47.31927 eV ==== 
     psi = 0.985*[#   2]+0.011*[#   6]+0.002*[#  10]+0.001*[#   9]
    |psi|^2 = 1.000
==== e(   3) =   -47.31480 eV ==== 
     psi = 0.989*[#   4]+0.010*[#   8]
    |psi|^2 = 1.000
==== e(   4) =   -47.31480 eV ==== 
     psi = 0.990*[#   3]+0.010*[#   7]
    |psi|^2 = 1.000
==== e(   5) =   -14.15609 eV ==== 
     psi = 0.854*[#   9]+0.076*[#   6]+0.065*[#   5]+0.003*[#  10]
    |psi|^2 = 0.998
==== e(   6) =    -5.81419 eV ==== 
     psi = 0.609*[#  10]+0.338*[#   5]+0.042*[#   9]+0.001*[#   1]
    |psi|^2 = 0.991
==== e(   7) =    -4.09014 eV ==== 
     psi = 0.876*[#  11]+0.114*[#   7]
    |psi|^2 = 0.991
==== e(   8) =    -4.07399 eV ==== 
     psi = 0.883*[#  12]+0.109*[#   8]
    |psi|^2 = 0.992
==== e(   9) =    -3.53751 eV ==== 
     psi = 0.434*[#   5]+0.305*[#   6]+0.238*[#  10]
    |psi|^2 = 0.980
==== e(  10) =    -0.71225 eV ==== 
     psi = 0.594*[#   7]+0.082*[#  11]+0.007*[#   3]+0.003*[#   6]
    |psi|^2 = 0.686
==== e(  11) =    -0.35656 eV ==== 
     psi = 0.717*[#   8]+0.089*[#  12]+0.008*[#   4]
    |psi|^2 = 0.815
==== e(  12) =     0.27241 eV ==== 
     psi = 0.137*[#   6]+0.062*[#   5]+0.037*[#  10]+0.026*[#   9]+0.003*[#   2]
          +0.002*[#   7]
    |psi|^2 = 0.270
==== e(  13) =     0.76623 eV ==== 
     psi = 0.060*[#   6]+0.057*[#   7]+0.006*[#   5]+0.006*[#   9]+0.006*[#  11]
          +0.001*[#  10]
    |psi|^2 = 0.138
==== e(  14) =     1.72070 eV ==== 
     psi = 0.069*[#   7]+0.016*[#   6]+0.010*[#  11]+0.008*[#   5]+0.007*[#  10]
          +0.003*[#   9]
    |psi|^2 = 0.115
==== e(  15) =     1.78544 eV ==== 
     psi = 0.015*[#   6]+0.014*[#   7]+0.007*[#   5]+0.007*[#  10]+0.003*[#   9]
          
    |psi|^2 = 0.046
==== e(  16) =     2.33024 eV ==== 
     psi = 0.033*[#   6]+0.015*[#   5]+0.011*[#  10]+0.009*[#   7]+0.005*[#   9]
          +0.002*[#  11]
    |psi|^2 = 0.076
==== e(  17) =     2.51691 eV ==== 
     psi = 0.010*[#   8]+0.001*[#  12]
    |psi|^2 = 0.011
==== e(  18) =     2.73538 eV ==== 
     psi = 0.015*[#   6]+0.005*[#   7]+0.005*[#   5]+0.002*[#   9]
    |psi|^2 = 0.028
==== e(  19) =     3.05754 eV ==== 
     psi = 0.003*[#   6]+0.001*[#   7]
    |psi|^2 = 0.005
==== e(  20) =     3.13248 eV ==== 
     psi = 0.042*[#   8]+0.010*[#  12]
    |psi|^2 = 0.053
==== e(  21) =     3.36576 eV ==== 
     psi = 0.029*[#   6]+0.010*[#   5]+0.009*[#  10]+0.006*[#   9]
    |psi|^2 = 0.057
==== e(  22) =     3.45059 eV ==== 
     psi = 0.013*[#   7]+0.004*[#  11]
    |psi|^2 = 0.018
==== e(  23) =     3.88364 eV ==== 
     psi = 0.017*[#   8]+0.005*[#  12]
    |psi|^2 = 0.022
==== e(  24) =     4.23965 eV ==== 
     psi = 0.025*[#   6]+0.007*[#   5]+0.006*[#  10]+0.005*[#   9]+0.002*[#   7]
          
    |psi|^2 = 0.045
==== e(  25) =     4.30364 eV ==== 
     psi = 0.010*[#   6]+0.005*[#  10]+0.004*[#   7]+0.002*[#   9]+0.002*[#  11]
          +0.002*[#   5]
    |psi|^2 = 0.025
==== e(  26) =     4.34063 eV ==== 
 
    |psi|^2 = 0.000
==== e(  27) =     4.67002 eV ==== 
     psi = 0.024*[#   6]+0.006*[#  10]+0.005*[#   5]+0.004*[#   9]+0.003*[#   7]
          
    |psi|^2 = 0.043
==== e(  28) =     4.77133 eV ==== 
     psi = 0.003*[#   8]
    |psi|^2 = 0.003
==== e(  29) =     5.06674 eV ==== 
     psi = 0.034*[#   6]+0.006*[#   5]+0.006*[#  10]+0.005*[#   9]
    |psi|^2 = 0.052
==== e(  30) =     5.16120 eV ==== 
     psi = 0.020*[#   7]+0.006*[#   6]+0.003*[#  11]+0.001*[#   9]
    |psi|^2 = 0.031
==== e(  31) =     5.51504 eV ==== 
     psi = 0.010*[#   6]+0.004*[#   7]+0.002*[#   9]+0.002*[#  10]+0.001*[#   5]
          
    |psi|^2 = 0.020
==== e(  32) =     5.63997 eV ==== 
 
    |psi|^2 = 0.002
==== e(  33) =     5.91116 eV ==== 
     psi = 0.004*[#   8]+0.002*[#  12]
    |psi|^2 = 0.006

 k =   0.2500000000  0.0000000000 -0.1750000000
==== e(   1) =   -80.36476 eV ==== 
     psi = 0.996*[#   1]+0.003*[#  10]
    |psi|^2 = 1.000
==== e(   2) =   -47.31927 eV ==== 
     psi = 0.985*[#   2]+0.011*[#   6]+0.002*[#  10]+0.001*[#   9]
    |psi|^2 = 1.000
==== e(   3) =   -47.31481 eV ==== 
     psi = 0.989*[#   4]+0.010*[#   8]
    |psi|^2 = 1.000
==== e(   4) =   -47.31480 eV ==== 
     psi = 0.990*[#   3]+0.010*[#   7]
    |psi|^2 = 1.000
==== e(   5) =   -14.15609 eV ==== 
     psi = 0.854*[#   9]+0.076*[#   6]+0.065*[#   5]+0.003*[#  10]
    |psi|^2 = 0.998
==== e(   6) =    -5.81332 eV ==== 
     psi = 0.610*[#  10]+0.337*[#   5]+0.042*[#   9]+0.001*[#   1]
    |psi|^2 = 0.991
==== e(   7) =    -4.09026 eV ==== 
     psi = 0.876*[#  11]+0.114*[#   7]
    |psi|^2 = 0.991
==== e(   8) =    -4.07406 eV ==== 
     psi = 0.883*[#  12]+0.109*[#   8]
    |psi|^2 = 0.992
==== e(   9) =    -3.54326 eV ==== 
     psi = 0.434*[#   5]+0.304*[#   6]+0.238*[#  10]
    |psi|^2 = 0.979
==== e(  10) =    -0.70946 eV ==== 
     psi = 0.592*[#   7]+0.083*[#  11]+0.007*[#   3]+0.003*[#   6]
    |psi|^2 = 0.685
==== e(  11) =    -0.35365 eV ==== 
     psi = 0.718*[#   8]+0.090*[#  12]+0.008*[#   4]
    |psi|^2 = 0.816
==== e(  12) =     0.37667 eV ==== 
     psi = 0.127*[#   6]+0.055*[#   5]+0.032*[#  10]+0.023*[#   9]+0.011*[#   7]
          +0.003*[#   2]+0.001*[#  11]
    |psi|^2 = 0.253
==== e(  13) =     0.72963 eV ==== 
     psi = 0.081*[#   6]+0.050*[#   7]+0.020*[#   5]+0.010*[#   9]+0.009*[#  10]
          +0.005*[#  11]+0.002*[#   2]
    |psi|^2 = 0.177
==== e(  14) =     1.61346 eV ==== 
     psi = 0.045*[#   7]+0.009*[#   6]+0.005*[#   5]+0.005*[#  11]+0.004*[#  10]
          +0.002*[#   9]
    |psi|^2 = 0.071
==== e(  15) =     1.88725 eV ==== 
     psi = 0.043*[#   7]+0.015*[#   6]+0.009*[#   5]+0.008*[#  10]+0.006*[#  11]
          +0.003*[#   9]
    |psi|^2 = 0.085
==== e(  16) =     2.09787 eV ==== 
     psi = 0.023*[#   6]+0.007*[#   5]+0.005*[#  10]+0.004*[#   9]
    |psi|^2 = 0.042
==== e(  17) =     2.48860 eV ==== 
     psi = 0.011*[#   8]+0.001*[#  12]
    |psi|^2 = 0.013
==== e(  18) =     2.76968 eV ==== 
     psi = 0.040*[#   6]+0.009*[#   5]+0.006*[#   9]+0.005*[#  10]+0.004*[#   7]
          
    |psi|^2 = 0.065
==== e(  19) =     2.97371 eV ==== 
     psi = 0.014*[#   6]+0.009*[#  10]+0.005*[#   5]+0.003*[#   9]+0.002*[#   7]
          
    |psi|^2 = 0.034
==== e(  20) =     3.08544 eV ==== 
     psi = 0.038*[#   8]+0.009*[#  12]
    |psi|^2 = 0.047
==== e(  21) =     3.30058 eV ==== 
     psi = 0.009*[#   7]+0.003*[#  11]
    |psi|^2 = 0.014
==== e(  22) =     3.79126 eV ==== 
     psi = 0.005*[#   7]+0.003*[#   6]+0.002*[#   5]+0.001*[#  10]+0.001*[#  11]
          
    |psi|^2 = 0.014
==== e(  23) =     3.97348 eV ==== 
     psi = 0.010*[#   8]+0.003*[#  12]
    |psi|^2 = 0.014
==== e(  24) =     4.23021 eV ==== 
     psi = 0.021*[#   6]+0.011*[#   7]+0.006*[#   5]+0.004*[#  10]+0.003*[#   9]
          +0.003*[#  11]
    |psi|^2 = 0.048
==== e(  25) =     4.39820 eV ==== 
     psi = 0.009*[#   6]+0.005*[#   7]+0.004*[#  10]+0.002*[#   5]+0.002*[#  11]
          +0.002*[#   9]
    |psi|^2 = 0.024
==== e(  26) =     4.45094 eV ==== 
     psi = 0.001*[#  12]+0.001*[#   8]
    |psi|^2 = 0.002
==== e(  27) =     4.66233 eV ==== 
     psi = 0.041*[#   6]+0.009*[#  10]+0.008*[#   5]+0.008*[#   9]+0.005*[#   7]
          
    |psi|^2 = 0.072
==== e(  28) =     4.89549 eV ==== 
     psi = 0.006*[#   6]+0.002*[#   5]+0.001*[#  10]+0.001*[#   9]
    |psi|^2 = 0.011
==== e(  29) =     4.90516 eV ==== 
     psi = 0.011*[#   8]+0.002*[#  12]
    |psi|^2 = 0.012
==== e(  30) =     5.16891 eV ==== 
     psi = 0.007*[#   6]+0.007*[#   7]+0.001*[#   5]
    |psi|^2 = 0.018
==== e(  31) =     5.34458 eV ==== 
     psi = 0.004*[#   8]
    |psi|^2 = 0.005
==== e(  32) =     5.43836 eV ==== 
     psi = 0.004*[#   6]+0.001*[#   7]
    |psi|^2 = 0.008
==== e(  33) =     5.72635 eV ==== 
     psi = 0.002*[#   7]
    |psi|^2 = 0.003

 k =   0.2500000000  0.2500000000  0.0000000000
==== e(   1) =   -80.36476 eV ==== 
     psi = 0.996*[#   1]+0.003*[#  10]
    |psi|^2 = 1.000
==== e(   2) =   -47.31926 eV ==== 
     psi = 0.985*[#   2]+0.011*[#   6]+0.002*[#  10]+0.001*[#   9]
    |psi|^2 = 1.000
==== e(   3) =   -47.31481 eV ==== 
     psi = 0.495*[#   3]+0.495*[#   4]+0.005*[#   7]+0.005*[#   8]
    |psi|^2 = 1.000
==== e(   4) =   -47.31480 eV ==== 
     psi = 0.495*[#   3]+0.495*[#   4]+0.005*[#   7]+0.005*[#   8]
    |psi|^2 = 1.000
==== e(   5) =   -14.15602 eV ==== 
     psi = 0.854*[#   9]+0.076*[#   6]+0.065*[#   5]+0.003*[#  10]
    |psi|^2 = 0.998
==== e(   6) =    -5.80912 eV ==== 
     psi = 0.612*[#  10]+0.335*[#   5]+0.042*[#   9]+0.001*[#   1]
    |psi|^2 = 0.991
==== e(   7) =    -4.08932 eV ==== 
     psi = 0.438*[#  11]+0.438*[#  12]+0.057*[#   7]+0.057*[#   8]
    |psi|^2 = 0.991
==== e(   8) =    -4.08812 eV ==== 
     psi = 0.439*[#  11]+0.439*[#  12]+0.057*[#   7]+0.057*[#   8]
    |psi|^2 = 0.991
==== e(   9) =    -3.52924 eV ==== 
     psi = 0.435*[#   5]+0.307*[#   6]+0.235*[#  10]
    |psi|^2 = 0.980
==== e(  10) =    -0.68937 eV ==== 
     psi = 0.295*[#   7]+0.295*[#   8]+0.041*[#  11]+0.041*[#  12]+0.005*[#   6]
          +0.003*[#   3]+0.003*[#   4]
    |psi|^2 = 0.684
==== e(  11) =    -0.61399 eV ==== 
     psi = 0.324*[#   7]+0.324*[#   8]+0.044*[#  11]+0.044*[#  12]+0.004*[#   3]
          +0.004*[#   4]
    |psi|^2 = 0.744
==== e(  12) =     0.74363 eV ==== 
     psi = 0.073*[#   6]+0.050*[#   5]+0.033*[#  10]+0.015*[#   9]+0.012*[#   7]
          +0.012*[#   8]+0.002*[#   2]+0.002*[#  11]+0.002*[#  12]
    |psi|^2 = 0.201
==== e(  13) =     0.86237 eV ==== 
     psi = 0.152*[#   6]+0.040*[#   5]+0.039*[#   7]+0.039*[#   8]+0.022*[#   9]
          +0.019*[#  10]+0.003*[#   2]+0.003*[#  11]+0.003*[#  12]
    |psi|^2 = 0.322
==== e(  14) =     1.65201 eV ==== 
     psi = 0.025*[#   6]+0.008*[#   7]+0.008*[#   8]+0.005*[#   5]+0.004*[#   9]
          +0.002*[#  10]+0.001*[#  11]+0.001*[#  12]
    |psi|^2 = 0.055
==== e(  15) =     1.80382 eV ==== 
     psi = 0.043*[#   7]+0.043*[#   8]+0.005*[#  11]+0.005*[#  12]
    |psi|^2 = 0.097
[...]
     psi = 0.001*[#  12]
    |psi|^2 = 0.002
==== e(  20) =     3.19215 eV ==== 
     psi = 0.048*[#   8]+0.005*[#  12]
    |psi|^2 = 0.054
==== e(  21) =     3.23993 eV ==== 
     psi = 0.038*[#   6]+0.008*[#   5]+0.005*[#   9]+0.004*[#  10]+0.002*[#   7]
          +0.001*[#  11]
    |psi|^2 = 0.059
==== e(  22) =     3.66327 eV ==== 
     psi = 0.003*[#  10]+0.002*[#   7]+0.001*[#   6]
    |psi|^2 = 0.008
==== e(  23) =     3.79019 eV ==== 
     psi = 0.002*[#   8]+0.001*[#  12]
    |psi|^2 = 0.003
==== e(  24) =     4.19602 eV ==== 
     psi = 0.012*[#   7]+0.004*[#   6]+0.004*[#  11]+0.002*[#  10]+0.002*[#   5]
          
    |psi|^2 = 0.025
==== e(  25) =     4.25007 eV ==== 
 
    |psi|^2 = 0.001
==== e(  26) =     4.60032 eV ==== 
     psi = 0.011*[#   6]+0.010*[#   7]+0.003*[#   5]+0.003*[#  11]+0.001*[#   9]
          
    |psi|^2 = 0.029
==== e(  27) =     4.60374 eV ==== 
     psi = 0.013*[#   8]+0.003*[#  12]
    |psi|^2 = 0.017
==== e(  28) =     5.17937 eV ==== 
     psi = 0.025*[#   6]+0.009*[#  10]+0.008*[#   7]+0.005*[#   5]+0.005*[#   9]
          
    |psi|^2 = 0.053
==== e(  29) =     5.32948 eV ==== 
 
    |psi|^2 = 0.000
==== e(  30) =     5.36096 eV ==== 
     psi = 0.016*[#   6]+0.009*[#   7]+0.006*[#  10]+0.003*[#   9]+0.002*[#   5]
          
    |psi|^2 = 0.036
==== e(  31) =     5.57877 eV ==== 
     psi = 0.017*[#   6]+0.006*[#  10]+0.004*[#   5]+0.004*[#   9]+0.001*[#   7]
          
    |psi|^2 = 0.032
==== e(  32) =     5.57994 eV ==== 
     psi = 0.006*[#   8]+0.003*[#  12]
    |psi|^2 = 0.009
==== e(  33) =     5.86299 eV ==== 
     psi = 0.002*[#   8]
    |psi|^2 = 0.002

 k =  -0.2500000000 -0.2500000000  0.0000000000
==== e(   1) =   -80.36476 eV ==== 
     psi = 0.996*[#   1]+0.003*[#  10]
    |psi|^2 = 1.000
==== e(   2) =   -47.31926 eV ==== 
     psi = 0.985*[#   2]+0.011*[#   6]+0.002*[#  10]+0.001*[#   9]
    |psi|^2 = 1.000
==== e(   3) =   -47.31481 eV ==== 
     psi = 0.495*[#   3]+0.495*[#   4]+0.005*[#   7]+0.005*[#   8]
    |psi|^2 = 1.000
==== e(   4) =   -47.31480 eV ==== 
     psi = 0.495*[#   3]+0.495*[#   4]+0.005*[#   7]+0.005*[#   8]
    |psi|^2 = 1.000
==== e(   5) =   -14.15602 eV ==== 
     psi = 0.854*[#   9]+0.076*[#   6]+0.065*[#   5]+0.003*[#  10]
    |psi|^2 = 0.998
==== e(   6) =    -5.80912 eV ==== 
     psi = 0.612*[#  10]+0.335*[#   5]+0.042*[#   9]+0.001*[#   1]
    |psi|^2 = 0.991
==== e(   7) =    -4.08932 eV ==== 
     psi = 0.438*[#  11]+0.438*[#  12]+0.057*[#   7]+0.057*[#   8]
    |psi|^2 = 0.991
==== e(   8) =    -4.08812 eV ==== 
     psi = 0.439*[#  11]+0.439*[#  12]+0.057*[#   7]+0.057*[#   8]
    |psi|^2 = 0.991
==== e(   9) =    -3.52924 eV ==== 
     psi = 0.435*[#   5]+0.307*[#   6]+0.235*[#  10]
    |psi|^2 = 0.980
==== e(  10) =    -0.68937 eV ==== 
     psi = 0.295*[#   7]+0.295*[#   8]+0.041*[#  11]+0.041*[#  12]+0.005*[#   6]
          +0.003*[#   3]+0.003*[#   4]
    |psi|^2 = 0.684
==== e(  11) =    -0.61399 eV ==== 
     psi = 0.324*[#   7]+0.324*[#   8]+0.044*[#  11]+0.044*[#  12]+0.004*[#   3]
          +0.004*[#   4]
    |psi|^2 = 0.744
==== e(  12) =     0.74363 eV ==== 
     psi = 0.073*[#   6]+0.050*[#   5]+0.033*[#  10]+0.015*[#   9]+0.012*[#   7]
          +0.012*[#   8]+0.002*[#   2]+0.002*[#  11]+0.002*[#  12]
    |psi|^2 = 0.201
==== e(  13) =     0.86237 eV ==== 
     psi = 0.152*[#   6]+0.040*[#   5]+0.039*[#   7]+0.039*[#   8]+0.022*[#   9]
          +0.019*[#  10]+0.003*[#   2]+0.003*[#  11]+0.003*[#  12]
    |psi|^2 = 0.322
==== e(  14) =     1.65201 eV ==== 
     psi = 0.025*[#   6]+0.008*[#   7]+0.008*[#   8]+0.005*[#   5]+0.004*[#   9]
          +0.002*[#  10]+0.001*[#  11]+0.001*[#  12]
    |psi|^2 = 0.055
==== e(  15) =     1.80382 eV ==== 
     psi = 0.043*[#   7]+0.043*[#   8]+0.005*[#  11]+0.005*[#  12]
    |psi|^2 = 0.097
==== e(  16) =     2.05968 eV ==== 
     psi = 0.017*[#   7]+0.017*[#   8]+0.003*[#  11]+0.003*[#  12]+0.002*[#   6]
          
    |psi|^2 = 0.042
==== e(  17) =     2.25976 eV ==== 
     psi = 0.008*[#  10]+0.006*[#   6]+0.005*[#   5]+0.002*[#   9]
    |psi|^2 = 0.024
==== e(  18) =     2.44905 eV ==== 
     psi = 0.001*[#   7]+0.001*[#   8]+0.001*[#  11]+0.001*[#  12]
    |psi|^2 = 0.005
==== e(  19) =     2.79826 eV ==== 
     psi = 0.065*[#   6]+0.015*[#   5]+0.015*[#  10]+0.012*[#   9]+0.001*[#   2]
          
    |psi|^2 = 0.109
==== e(  20) =     3.04564 eV ==== 
     psi = 0.007*[#   7]+0.007*[#   8]+0.002*[#  11]+0.002*[#  12]
    |psi|^2 = 0.018
==== e(  21) =     3.52236 eV ==== 
     psi = 0.005*[#   7]+0.005*[#   8]+0.002*[#  11]+0.002*[#  12]+0.001*[#   6]
          
    |psi|^2 = 0.016
==== e(  22) =     3.74065 eV ==== 
     psi = 0.017*[#   6]+0.005*[#   7]+0.005*[#   8]+0.004*[#  10]+0.003*[#   5]
          +0.002*[#   9]
    |psi|^2 = 0.038
==== e(  23) =     4.03732 eV ==== 
     psi = 0.003*[#  10]+0.001*[#   7]+0.001*[#   8]
    |psi|^2 = 0.006
==== e(  24) =     4.15514 eV ==== 
     psi = 0.016*[#   7]+0.016*[#   8]+0.002*[#  11]+0.002*[#  12]
    |psi|^2 = 0.035
==== e(  25) =     4.41097 eV ==== 
     psi = 0.007*[#   7]+0.007*[#   8]+0.004*[#   6]+0.003*[#  11]+0.003*[#  12]
          
    |psi|^2 = 0.025
==== e(  26) =     4.54978 eV ==== 
     psi = 0.003*[#   7]+0.003*[#   8]+0.002*[#  11]+0.002*[#  12]
    |psi|^2 = 0.010
==== e(  27) =     4.83848 eV ==== 
     psi = 0.005*[#   6]+0.002*[#  10]
    |psi|^2 = 0.009
==== e(  28) =     5.03033 eV ==== 
     psi = 0.020*[#   6]+0.008*[#   5]+0.003*[#  10]+0.002*[#   9]
    |psi|^2 = 0.036
==== e(  29) =     5.09836 eV ==== 
     psi = 0.001*[#   7]+0.001*[#   8]
    |psi|^2 = 0.003
==== e(  30) =     5.39458 eV ==== 
     psi = 0.005*[#   7]+0.005*[#   8]
    |psi|^2 = 0.012
==== e(  31) =     5.47066 eV ==== 
     psi = 0.007*[#   6]+0.004*[#   7]+0.004*[#   8]+0.001*[#   5]
    |psi|^2 = 0.017
==== e(  32) =     5.69186 eV ==== 
 
    |psi|^2 = 0.002
==== e(  33) =     5.91493 eV ==== 
     psi = 0.002*[#   7]+0.002*[#   8]
    |psi|^2 = 0.004

 k =  -0.2500000000 -0.2500000000  0.1750000000
==== e(   1) =   -80.36476 eV ==== 
     psi = 0.996*[#   1]+0.003*[#  10]
    |psi|^2 = 1.000
==== e(   2) =   -47.31927 eV ==== 
     psi = 0.985*[#   2]+0.011*[#   6]+0.002*[#  10]+0.001*[#   9]
    |psi|^2 = 1.000
==== e(   3) =   -47.31480 eV ==== 
     psi = 0.495*[#   3]+0.495*[#   4]+0.005*[#   7]+0.005*[#   8]
    |psi|^2 = 1.000
==== e(   4) =   -47.31480 eV ==== 
     psi = 0.495*[#   3]+0.495*[#   4]+0.005*[#   7]+0.005*[#   8]
    |psi|^2 = 1.000
==== e(   5) =   -14.15602 eV ==== 
     psi = 0.854*[#   9]+0.076*[#   6]+0.065*[#   5]+0.003*[#  10]
    |psi|^2 = 0.998
==== e(   6) =    -5.80997 eV ==== 
     psi = 0.612*[#  10]+0.335*[#   5]+0.042*[#   9]+0.001*[#   1]
    |psi|^2 = 0.991
==== e(   7) =    -4.08919 eV ==== 
     psi = 0.438*[#  11]+0.438*[#  12]+0.057*[#   7]+0.057*[#   8]
    |psi|^2 = 0.991
==== e(   8) =    -4.08802 eV ==== 
     psi = 0.439*[#  11]+0.439*[#  12]+0.057*[#   7]+0.057*[#   8]
    |psi|^2 = 0.991
==== e(   9) =    -3.52381 eV ==== 
     psi = 0.435*[#   5]+0.308*[#   6]+0.235*[#  10]
    |psi|^2 = 0.981
==== e(  10) =    -0.69211 eV ==== 
     psi = 0.295*[#   7]+0.295*[#   8]+0.041*[#  11]+0.041*[#  12]+0.004*[#   6]
          +0.003*[#   3]+0.003*[#   4]
    |psi|^2 = 0.684
==== e(  11) =    -0.61753 eV ==== 
     psi = 0.324*[#   7]+0.324*[#   8]+0.044*[#  11]+0.044*[#  12]+0.004*[#   3]
          +0.004*[#   4]
    |psi|^2 = 0.743
==== e(  12) =     0.53482 eV ==== 
     psi = 0.132*[#   6]+0.060*[#   5]+0.037*[#  10]+0.025*[#   9]+0.005*[#   7]
          +0.005*[#   8]+0.003*[#   2]
    |psi|^2 = 0.271
==== e(  13) =     1.03059 eV ==== 
     psi = 0.073*[#   6]+0.054*[#   7]+0.054*[#   8]+0.019*[#   5]+0.010*[#   9]
          +0.009*[#  10]+0.005*[#  11]+0.005*[#  12]+0.001*[#   2]
    |psi|^2 = 0.233
==== e(  14) =     1.75454 eV ==== 
     psi = 0.037*[#   6]+0.009*[#   5]+0.005*[#   9]+0.004*[#  10]+0.001*[#   7]
          +0.001*[#   8]
    |psi|^2 = 0.058
==== e(  15) =     1.86797 eV ==== 
     psi = 0.043*[#   7]+0.043*[#   8]+0.005*[#  11]+0.005*[#  12]
    |psi|^2 = 0.096
==== e(  16) =     1.93347 eV ==== 
     psi = 0.019*[#   6]+0.010*[#  10]+0.009*[#   5]+0.007*[#   7]+0.007*[#   8]
          +0.004*[#   9]+0.002*[#  11]+0.002*[#  12]
    |psi|^2 = 0.060
==== e(  17) =     2.31593 eV ==== 
     psi = 0.006*[#   7]+0.006*[#   8]+0.002*[#  11]+0.002*[#  12]
    |psi|^2 = 0.016
==== e(  18) =     2.32990 eV ==== 
     psi = 0.008*[#   6]+0.008*[#   7]+0.008*[#   8]+0.004*[#   5]+0.003*[#  10]
          +0.002*[#   9]+0.002*[#  11]+0.002*[#  12]
    |psi|^2 = 0.036
==== e(  19) =     3.09814 eV ==== 
     psi = 0.030*[#   6]+0.009*[#  10]+0.009*[#   5]+0.005*[#   9]+0.002*[#   7]
          +0.002*[#   8]
    |psi|^2 = 0.059
==== e(  20) =     3.19160 eV ==== 
     psi = 0.006*[#   7]+0.006*[#   8]+0.002*[#  11]+0.002*[#  12]
    |psi|^2 = 0.016
==== e(  21) =     3.33673 eV ==== 
     psi = 0.026*[#   6]+0.006*[#   5]+0.005*[#  10]+0.004*[#   9]+0.003*[#   7]
          +0.003*[#   8]
    |psi|^2 = 0.050
==== e(  22) =     3.76062 eV ==== 
     psi = 0.006*[#   6]+0.003*[#   7]+0.003*[#   8]+0.002*[#   5]+0.001*[#  11]
          +0.001*[#  12]
    |psi|^2 = 0.018
==== e(  23) =     4.04082 eV ==== 
     psi = 0.007*[#   7]+0.007*[#   8]+0.002*[#  11]+0.002*[#  12]
    |psi|^2 = 0.019
==== e(  24) =     4.13552 eV ==== 
     psi = 0.010*[#   7]+0.010*[#   8]+0.001*[#  11]+0.001*[#  12]
    |psi|^2 = 0.022
==== e(  25) =     4.27436 eV ==== 
     psi = 0.004*[#   6]+0.001*[#   5]+0.001*[#   7]+0.001*[#   8]
    |psi|^2 = 0.010
==== e(  26) =     4.55719 eV ==== 
     psi = 0.003*[#   7]+0.003*[#   8]+0.001*[#  11]+0.001*[#  12]
    |psi|^2 = 0.009
==== e(  27) =     4.80055 eV ==== 
     psi = 0.001*[#   7]+0.001*[#   8]
    |psi|^2 = 0.004
==== e(  28) =     4.83009 eV ==== 
     psi = 0.018*[#   6]+0.005*[#   5]+0.005*[#  10]+0.003*[#   9]+0.002*[#   7]
          +0.002*[#   8]
    |psi|^2 = 0.039
==== e(  29) =     5.00101 eV ==== 
     psi = 0.036*[#   6]+0.009*[#  10]+0.007*[#   5]+0.006*[#   9]+0.002*[#   7]
          +0.002*[#   8]
    |psi|^2 = 0.065
==== e(  30) =     5.31566 eV ==== 
     psi = 0.013*[#   6]+0.003*[#  10]+0.002*[#   9]+0.002*[#   5]
    |psi|^2 = 0.023
==== e(  31) =     5.48497 eV ==== 
     psi = 0.003*[#   7]+0.003*[#   8]
    |psi|^2 = 0.007
==== e(  32) =     5.59972 eV ==== 
     psi = 0.003*[#   6]+0.002*[#   7]+0.002*[#   8]+0.001*[#  10]
    |psi|^2 = 0.011
==== e(  33) =     5.94391 eV ==== 
     psi = 0.003*[#   7]+0.003*[#   8]
    |psi|^2 = 0.008

 k =  -0.2500000000 -0.2500000000 -0.3500000000
==== e(   1) =   -80.36476 eV ==== 
     psi = 0.996*[#   1]+0.003*[#  10]
    |psi|^2 = 1.000
==== e(   2) =   -47.31927 eV ==== 
     psi = 0.985*[#   2]+0.011*[#   6]+0.002*[#  10]+0.001*[#   9]
    |psi|^2 = 1.000
==== e(   3) =   -47.31480 eV ==== 
     psi = 0.495*[#   3]+0.495*[#   4]+0.005*[#   7]+0.005*[#   8]
    |psi|^2 = 1.000
==== e(   4) =   -47.31480 eV ==== 
     psi = 0.495*[#   3]+0.495*[#   4]+0.005*[#   7]+0.005*[#   8]
    |psi|^2 = 1.000
==== e(   5) =   -14.15602 eV ==== 
     psi = 0.854*[#   9]+0.076*[#   6]+0.065*[#   5]+0.003*[#  10]
    |psi|^2 = 0.998
==== e(   6) =    -5.81081 eV ==== 
     psi = 0.612*[#  10]+0.335*[#   5]+0.042*[#   9]+0.001*[#   1]
    |psi|^2 = 0.991
==== e(   7) =    -4.08906 eV ==== 
     psi = 0.438*[#  11]+0.438*[#  12]+0.057*[#   7]+0.057*[#   8]
    |psi|^2 = 0.991
==== e(   8) =    -4.08791 eV ==== 
     psi = 0.439*[#  11]+0.439*[#  12]+0.057*[#   7]+0.057*[#   8]
    |psi|^2 = 0.991
==== e(   9) =    -3.51834 eV ==== 
     psi = 0.434*[#   5]+0.308*[#   6]+0.236*[#  10]
    |psi|^2 = 0.982
==== e(  10) =    -0.69486 eV ==== 
     psi = 0.296*[#   7]+0.296*[#   8]+0.041*[#  11]+0.041*[#  12]+0.004*[#   6]
          +0.003*[#   3]+0.003*[#   4]
    |psi|^2 = 0.684
==== e(  11) =    -0.62105 eV ==== 
     psi = 0.323*[#   7]+0.323*[#   8]+0.044*[#  11]+0.044*[#  12]+0.004*[#   3]
          +0.004*[#   4]
    |psi|^2 = 0.742
==== e(  12) =     0.42361 eV ==== 
     psi = 0.143*[#   6]+0.064*[#   5]+0.039*[#  10]+0.027*[#   9]+0.003*[#   2]
          +0.002*[#   7]+0.002*[#   8]
    |psi|^2 = 0.282
==== e(  13) =     1.11957 eV ==== 
     psi = 0.064*[#   7]+0.064*[#   8]+0.048*[#   6]+0.008*[#   5]+0.006*[#  11]
          +0.006*[#  12]+0.005*[#   9]+0.002*[#  10]
    |psi|^2 = 0.207
==== e(  14) =     1.77312 eV ==== 
     psi = 0.057*[#   6]+0.022*[#   5]+0.017*[#  10]+0.010*[#   9]+0.002*[#   7]
          +0.002*[#   8]+0.001*[#   2]
    |psi|^2 = 0.112
==== e(  15) =     1.84322 eV ==== 
     psi = 0.007*[#   6]
    |psi|^2 = 0.008
==== e(  16) =     1.98706 eV ==== 
     psi = 0.051*[#   7]+0.051*[#   8]+0.006*[#  11]+0.006*[#  12]
    |psi|^2 = 0.116
==== e(  17) =     2.14521 eV ==== 
 
    |psi|^2 = 0.002
==== e(  18) =     2.60379 eV ==== 
     psi = 0.016*[#   6]+0.009*[#   5]+0.006*[#   7]+0.006*[#   8]+0.006*[#  10]
          +0.002*[#   9]+0.001*[#  11]+0.001*[#  12]
    |psi|^2 = 0.050
==== e(  19) =     3.12922 eV ==== 
     psi = 0.008*[#   7]+0.008*[#   8]+0.002*[#  11]+0.002*[#  12]
    |psi|^2 = 0.021
==== e(  20) =     3.35289 eV ==== 
     psi = 0.023*[#   6]+0.010*[#   5]+0.005*[#  10]+0.005*[#   9]
    |psi|^2 = 0.044
==== e(  21) =     3.36271 eV ==== 
     psi = 0.010*[#   7]+0.010*[#   8]+0.002*[#  11]+0.002*[#  12]
    |psi|^2 = 0.025
==== e(  22) =     3.72778 eV ==== 
     psi = 0.011*[#   6]+0.002*[#   7]+0.002*[#   8]+0.001*[#   9]
    |psi|^2 = 0.018
==== e(  23) =     3.80058 eV ==== 
     psi = 0.016*[#   6]+0.005*[#   5]+0.003*[#  10]+0.002*[#   9]
    |psi|^2 = 0.029
==== e(  24) =     4.05743 eV ==== 
 
    |psi|^2 = 0.002
==== e(  25) =     4.41651 eV ==== 
 
    |psi|^2 = 0.000
==== e(  26) =     4.42211 eV ==== 
     psi = 0.041*[#   6]+0.013*[#  10]+0.011*[#   7]+0.011*[#   8]+0.008*[#   9]
          +0.008*[#   5]+0.002*[#  11]+0.002*[#  12]
    |psi|^2 = 0.098
==== e(  27) =     4.63159 eV ==== 
     psi = 0.017*[#   6]+0.005*[#   5]+0.003*[#   9]+0.003*[#  10]
    |psi|^2 = 0.028
==== e(  28) =     4.80060 eV ==== 
     psi = 0.005*[#   7]+0.005*[#   8]+0.001*[#  11]+0.001*[#  12]
    |psi|^2 = 0.012
==== e(  29) =     5.08791 eV ==== 
     psi = 0.010*[#   6]+0.003*[#  10]+0.002*[#   9]+0.002*[#   5]+0.001*[#   7]
          +0.001*[#   8]
    |psi|^2 = 0.022
==== e(  30) =     5.28331 eV ==== 
     psi = 0.002*[#  10]+0.001*[#   6]
    |psi|^2 = 0.005
==== e(  31) =     5.52157 eV ==== 
     psi = 0.021*[#   6]+0.005*[#  10]+0.003*[#   9]+0.002*[#   5]
    |psi|^2 = 0.032
==== e(  32) =     5.64903 eV ==== 
     psi = 0.004*[#   7]+0.004*[#   8]
    |psi|^2 = 0.009
==== e(  33) =     5.82635 eV ==== 
     psi = 0.007*[#   7]+0.007*[#   8]+0.002*[#  11]+0.002*[#  12]
    |psi|^2 = 0.019

 k =  -0.2500000000 -0.2500000000 -0.1750000000
==== e(   1) =   -80.36476 eV ==== 
     psi = 0.996*[#   1]+0.003*[#  10]
    |psi|^2 = 1.000
==== e(   2) =   -47.31927 eV ==== 
     psi = 0.985*[#   2]+0.011*[#   6]+0.002*[#  10]+0.001*[#   9]
    |psi|^2 = 1.000
==== e(   3) =   -47.31480 eV ==== 
     psi = 0.495*[#   3]+0.495*[#   4]+0.005*[#   7]+0.005*[#   8]
    |psi|^2 = 1.000
==== e(   4) =   -47.31480 eV ==== 
     psi = 0.495*[#   3]+0.495*[#   4]+0.005*[#   7]+0.005*[#   8]
    |psi|^2 = 1.000
==== e(   5) =   -14.15602 eV ==== 
     psi = 0.854*[#   9]+0.076*[#   6]+0.065*[#   5]+0.003*[#  10]
    |psi|^2 = 0.998
==== e(   6) =    -5.80997 eV ==== 
     psi = 0.612*[#  10]+0.335*[#   5]+0.042*[#   9]+0.001*[#   1]
    |psi|^2 = 0.991
==== e(   7) =    -4.08919 eV ==== 
     psi = 0.438*[#  11]+0.438*[#  12]+0.057*[#   7]+0.057*[#   8]
    |psi|^2 = 0.991
==== e(   8) =    -4.08802 eV ==== 
     psi = 0.439*[#  11]+0.439*[#  12]+0.057*[#   7]+0.057*[#   8]
    |psi|^2 = 0.991
==== e(   9) =    -3.52381 eV ==== 
     psi = 0.435*[#   5]+0.308*[#   6]+0.235*[#  10]
    |psi|^2 = 0.981
==== e(  10) =    -0.69211 eV ==== 
     psi = 0.295*[#   7]+0.295*[#   8]+0.041*[#  11]+0.041*[#  12]+0.004*[#   6]
          +0.003*[#   3]+0.003*[#   4]
    |psi|^2 = 0.684
==== e(  11) =    -0.61753 eV ==== 
     psi = 0.324*[#   7]+0.324*[#   8]+0.044*[#  11]+0.044*[#  12]+0.004*[#   3]
          +0.004*[#   4]
    |psi|^2 = 0.743
==== e(  12) =     0.53482 eV ==== 
     psi = 0.132*[#   6]+0.060*[#   5]+0.037*[#  10]+0.025*[#   9]+0.005*[#   7]
          +0.005*[#   8]+0.003*[#   2]
    |psi|^2 = 0.271
==== e(  13) =     1.03059 eV ==== 
     psi = 0.073*[#   6]+0.054*[#   7]+0.054*[#   8]+0.019*[#   5]+0.010*[#   9]
          +0.009*[#  10]+0.005*[#  11]+0.005*[#  12]+0.001*[#   2]
    |psi|^2 = 0.233
==== e(  14) =     1.75454 eV ==== 
     psi = 0.037*[#   6]+0.009*[#   5]+0.005*[#   9]+0.004*[#  10]+0.001*[#   7]
          +0.001*[#   8]
    |psi|^2 = 0.058
==== e(  15) =     1.86797 eV ==== 
     psi = 0.043*[#   7]+0.043*[#   8]+0.005*[#  11]+0.005*[#  12]
    |psi|^2 = 0.096
==== e(  16) =     1.93347 eV ==== 
     psi = 0.019*[#   6]+0.010*[#  10]+0.009*[#   5]+0.007*[#   7]+0.007*[#   8]
          +0.004*[#   9]+0.002*[#  11]+0.002*[#  12]
    |psi|^2 = 0.060
==== e(  17) =     2.31593 eV ==== 
     psi = 0.006*[#   7]+0.006*[#   8]+0.002*[#  11]+0.002*[#  12]
    |psi|^2 = 0.016
==== e(  18) =     2.32990 eV ==== 
     psi = 0.008*[#   6]+0.008*[#   7]+0.008*[#   8]+0.004*[#   5]+0.003*[#  10]
          +0.002*[#   9]+0.002*[#  11]+0.002*[#  12]
    |psi|^2 = 0.036
==== e(  19) =     3.09814 eV ==== 
     psi = 0.030*[#   6]+0.009*[#  10]+0.009*[#   5]+0.005*[#   9]+0.002*[#   7]
          +0.002*[#   8]
    |psi|^2 = 0.059
==== e(  20) =     3.19160 eV ==== 
     psi = 0.006*[#   7]+0.006*[#   8]+0.002*[#  11]+0.002*[#  12]
    |psi|^2 = 0.016
==== e(  21) =     3.33673 eV ==== 
     psi = 0.026*[#   6]+0.006*[#   5]+0.005*[#  10]+0.004*[#   9]+0.003*[#   7]
          +0.003*[#   8]
    |psi|^2 = 0.050
==== e(  22) =     3.76062 eV ==== 
     psi = 0.006*[#   6]+0.003*[#   7]+0.003*[#   8]+0.002*[#   5]+0.001*[#  11]
          +0.001*[#  12]
    |psi|^2 = 0.018
==== e(  23) =     4.04082 eV ==== 
     psi = 0.007*[#   7]+0.007*[#   8]+0.002*[#  11]+0.002*[#  12]
    |psi|^2 = 0.019
==== e(  24) =     4.13552 eV ==== 
     psi = 0.010*[#   7]+0.010*[#   8]+0.001*[#  11]+0.001*[#  12]
    |psi|^2 = 0.022
==== e(  25) =     4.27436 eV ==== 
     psi = 0.004*[#   6]+0.001*[#   5]+0.001*[#   7]+0.001*[#   8]
    |psi|^2 = 0.010
==== e(  26) =     4.55719 eV ==== 
     psi = 0.003*[#   7]+0.003*[#   8]+0.001*[#  11]+0.001*[#  12]
    |psi|^2 = 0.009
==== e(  27) =     4.80055 eV ==== 
     psi = 0.001*[#   7]+0.001*[#   8]
    |psi|^2 = 0.004
==== e(  28) =     4.83009 eV ==== 
     psi = 0.018*[#   6]+0.005*[#   5]+0.005*[#  10]+0.003*[#   9]+0.002*[#   7]
          +0.002*[#   8]
    |psi|^2 = 0.039
==== e(  29) =     5.00101 eV ==== 
     psi = 0.036*[#   6]+0.009*[#  10]+0.007*[#   5]+0.006*[#   9]+0.002*[#   7]
          +0.002*[#   8]
    |psi|^2 = 0.065
==== e(  30) =     5.31566 eV ==== 
     psi = 0.013*[#   6]+0.003*[#  10]+0.002*[#   9]+0.002*[#   5]
    |psi|^2 = 0.023
==== e(  31) =     5.48497 eV ==== 
     psi = 0.003*[#   7]+0.003*[#   8]
    |psi|^2 = 0.007
==== e(  32) =     5.59972 eV ==== 
     psi = 0.003*[#   6]+0.002*[#   7]+0.002*[#   8]+0.001*[#  10]
    |psi|^2 = 0.011
==== e(  33) =     5.94391 eV ==== 
     psi = 0.003*[#   7]+0.003*[#   8]
    |psi|^2 = 0.008

Lowdin Charges: 

     Atom #   1: total charge =   9.4001, s =  2.7987, 
     Atom #   1: total charge =   9.4001, p =  6.6014, pz=  2.1479, px=  2.2267, py=  2.2267, 
     Atom #   2: total charge =   6.5418, s =  1.7955, 
     Atom #   2: total charge =   6.5418, p =  4.7463, pz=  1.2414, px=  1.7524, py=  1.7524, 
     Spilling Parameter:   0.0036
 
     PROJWFC      :      6.32s CPU      7.53s WALL

 
   This run was terminated on:  21:35: 6  16Apr2020            

=------------------------------------------------------------------------------=
   JOB DONE.
=------------------------------------------------------------------------------=
