
     Program PROJWFC v.6.5 starts on 16Apr2020 at 21: 4:56 

     This program is part of the open-source Quantum ESPRESSO suite
     for quantum simulation of materials; please cite
         "P. Giannozzi et al., J. Phys.:Condens. Matter 21 395502 (2009);
         "P. Giannozzi et al., J. Phys.:Condens. Matter 29 465901 (2017);
          URL http://www.quantum-espresso.org", 
     in publications or presentations arising from this work. More details at
     http://www.quantum-espresso.org/quote

     Parallel version (MPI), running on     1 processors

     MPI processes distributed on     1 nodes

     Reading xml data from directory:

     /wrk/kfg/julia_data/MgS/znse.in_vnscf_vol_3/qe.nscf.save/
     Message from routine volume:
     axis vectors are left-handed

     IMPORTANT: XC functional enforced from input :
     Exchange-correlation= PBESOL
                           (   1   4  10   8   0   0   0)
     Any further DFT definition will be discarded
     Please, verify this is what you really want

               file mg.pbesol.UPF: wavefunction(s)  3P renormalized
 
     G-vector sticks info
     --------------------
     sticks:   dense  smooth     PW     G-vecs:    dense   smooth      PW
     Sum        1069     769    253                23505    14331    2637
 

     Gaussian broadening (read from file): ngauss,degauss=   0    0.010000


     Calling projwave .... 
 
  Problem Sizes 
  natomwfc =           12
  nbnd     =           33
  nkstot   =          512
  npwx     =         1817
  nkb      =           37
 

     Atomic states used for projection
     (read from pseudopotential files):

     state #   1: atom   1 (Mg ), wfc  1 (l=0 m= 1)
     state #   2: atom   1 (Mg ), wfc  2 (l=1 m= 1)
     state #   3: atom   1 (Mg ), wfc  2 (l=1 m= 2)
     state #   4: atom   1 (Mg ), wfc  2 (l=1 m= 3)
     state #   5: atom   1 (Mg ), wfc  3 (l=0 m= 1)
     state #   6: atom   1 (Mg ), wfc  4 (l=1 m= 1)
     state #   7: atom   1 (Mg ), wfc  4 (l=1 m= 2)
     state #   8: atom   1 (Mg ), wfc  4 (l=1 m= 3)
     state #   9: atom   2 (S  ), wfc  1 (l=0 m= 1)
     state #  10: atom   2 (S  ), wfc  2 (l=1 m= 1)
     state #  11: atom   2 (S  ), wfc  2 (l=1 m= 2)
     state #  12: atom   2 (S  ), wfc  2 (l=1 m= 3)

 k =   0.0000000000  0.0000000000  0.0000000000
==== e(   1) =   -72.00812 eV ==== 
     psi = 0.998*[#   1]+0.001*[#   5]
    |psi|^2 = 1.000
==== e(   2) =   -38.96328 eV ==== 
     psi = 0.797*[#   2]+0.179*[#   4]+0.013*[#   6]+0.008*[#   3]+0.003*[#   8]
          
    |psi|^2 = 1.000
==== e(   3) =   -38.96328 eV ==== 
     psi = 0.790*[#   4]+0.185*[#   2]+0.013*[#   8]+0.008*[#   3]+0.003*[#   6]
          
    |psi|^2 = 1.000
==== e(   4) =   -38.96328 eV ==== 
     psi = 0.968*[#   3]+0.015*[#   7]+0.015*[#   4]+0.002*[#   2]
    |psi|^2 = 1.000
==== e(   5) =    -8.96459 eV ==== 
     psi = 0.715*[#   9]+0.283*[#   5]+0.001*[#   1]
    |psi|^2 = 0.999
==== e(   6) =     1.88458 eV ==== 
     psi = 0.790*[#  10]+0.109*[#  11]+0.070*[#  12]+0.016*[#   6]+0.002*[#   7]
          +0.001*[#   8]
    |psi|^2 = 0.989
==== e(   7) =     1.88458 eV ==== 
     psi = 0.811*[#  11]+0.080*[#  12]+0.077*[#  10]+0.017*[#   7]+0.002*[#   6]
          +0.002*[#   8]
    |psi|^2 = 0.989
==== e(   8) =     1.88458 eV ==== 
     psi = 0.818*[#  12]+0.101*[#  10]+0.049*[#  11]+0.017*[#   8]+0.002*[#   6]
          +0.001*[#   7]
    |psi|^2 = 0.989
==== e(   9) =     4.53933 eV ==== 
     psi = 0.713*[#   5]+0.280*[#   9]
    |psi|^2 = 0.993
==== e(  10) =     9.36781 eV ==== 
     psi = 0.320*[#   6]+0.286*[#   8]+0.160*[#   7]+0.008*[#  10]+0.007*[#  12]
          +0.005*[#   2]+0.005*[#   4]+0.004*[#  11]+0.003*[#   3]
    |psi|^2 = 0.798
==== e(  11) =     9.36781 eV ==== 
     psi = 0.379*[#   8]+0.318*[#   7]+0.069*[#   6]+0.009*[#  12]+0.008*[#  11]
          +0.006*[#   4]+0.005*[#   3]+0.002*[#  10]+0.001*[#   2]
    |psi|^2 = 0.798
==== e(  12) =     9.36781 eV ==== 
     psi = 0.377*[#   6]+0.288*[#   7]+0.101*[#   8]+0.009*[#  10]+0.007*[#  11]
          +0.006*[#   2]+0.005*[#   3]+0.003*[#  12]+0.002*[#   4]
    |psi|^2 = 0.798
==== e(  13) =    12.29453 eV ==== 
 
    |psi|^2 = 0.000
==== e(  14) =    12.29453 eV ==== 
 
    |psi|^2 = 0.000
==== e(  15) =    14.30825 eV ==== 
     psi = 0.002*[#   9]
    |psi|^2 = 0.002
==== e(  16) =    14.87566 eV ==== 
     psi = 0.028*[#   7]+0.020*[#   8]+0.006*[#   6]
    |psi|^2 = 0.056
==== e(  17) =    14.87566 eV ==== 
     psi = 0.027*[#   8]+0.025*[#   7]+0.001*[#   6]
    |psi|^2 = 0.056
==== e(  18) =    14.87566 eV ==== 
     psi = 0.046*[#   6]+0.006*[#   8]+0.002*[#  10]+0.001*[#   7]
    |psi|^2 = 0.056
==== e(  19) =    17.76568 eV ==== 
     psi = 0.002*[#   5]+0.002*[#   9]
    |psi|^2 = 0.005
==== e(  20) =    24.29305 eV ==== 
     psi = 0.007*[#   8]+0.003*[#   7]+0.001*[#  12]
    |psi|^2 = 0.012
==== e(  21) =    24.29305 eV ==== 
     psi = 0.005*[#   6]+0.003*[#   7]+0.002*[#   8]
    |psi|^2 = 0.012
==== e(  22) =    24.29305 eV ==== 
     psi = 0.005*[#   6]+0.004*[#   7]+0.001*[#   8]
    |psi|^2 = 0.012
==== e(  23) =    24.92799 eV ==== 
     psi = 0.069*[#   8]+0.016*[#   7]+0.013*[#   6]+0.005*[#  12]+0.001*[#   4]
          +0.001*[#  11]
    |psi|^2 = 0.106
==== e(  24) =    24.92799 eV ==== 
     psi = 0.040*[#   7]+0.029*[#   6]+0.028*[#   8]+0.003*[#  11]+0.002*[#  10]
          +0.002*[#  12]
    |psi|^2 = 0.106
==== e(  25) =    24.92799 eV ==== 
     psi = 0.056*[#   6]+0.041*[#   7]+0.004*[#  10]+0.003*[#  11]
    |psi|^2 = 0.106
==== e(  26) =    25.72803 eV ==== 
 
    |psi|^2 = 0.000
==== e(  27) =    25.72803 eV ==== 
 
    |psi|^2 = 0.000
==== e(  28) =    30.65859 eV ==== 
 
    |psi|^2 = 0.000
==== e(  29) =    30.65859 eV ==== 
 
    |psi|^2 = 0.000
==== e(  30) =    30.65859 eV ==== 
 
    |psi|^2 = 0.000
==== e(  31) =    34.82893 eV ==== 
 
    |psi|^2 = 0.002
==== e(  32) =    34.82893 eV ==== 
 
    |psi|^2 = 0.002
==== e(  33) =    34.82893 eV ==== 
 
    |psi|^2 = 0.002

 k =  -0.0883883476  0.0883883476  0.0883883476
==== e(   1) =   -72.00812 eV ==== 
     psi = 0.998*[#   1]
    |psi|^2 = 1.000
==== e(   2) =   -38.96346 eV ==== 
     psi = 0.328*[#   2]+0.328*[#   3]+0.328*[#   4]+0.005*[#   6]+0.005*[#   7]
          +0.005*[#   8]
    |psi|^2 = 1.000
==== e(   3) =   -38.96331 eV ==== 
     psi = 0.583*[#   4]+0.339*[#   2]+0.062*[#   3]+0.009*[#   8]+0.005*[#   6]
          
    |psi|^2 = 1.000
==== e(   4) =   -38.96331 eV ==== 
     psi = 0.594*[#   3]+0.317*[#   2]+0.073*[#   4]+0.009*[#   7]+0.005*[#   6]
          +0.001*[#   8]
    |psi|^2 = 1.000
==== e(   5) =    -8.89790 eV ==== 
     psi = 0.726*[#   9]+0.250*[#   5]+0.007*[#   6]+0.007*[#   7]+0.007*[#   8]
          +0.001*[#   1]
    |psi|^2 = 0.999
==== e(   6) =     1.25411 eV ==== 
     psi = 0.274*[#  10]+0.274*[#  11]+0.274*[#  12]+0.095*[#   5]+0.038*[#   9]
          +0.012*[#   6]+0.012*[#   7]+0.012*[#   8]
    |psi|^2 = 0.991
==== e(   7) =     1.83821 eV ==== 
     psi = 0.599*[#  11]+0.221*[#  12]+0.138*[#  10]+0.020*[#   7]+0.007*[#   8]
          +0.005*[#   6]
    |psi|^2 = 0.990
==== e(   8) =     1.83821 eV ==== 
     psi = 0.500*[#  10]+0.418*[#  12]+0.040*[#  11]+0.017*[#   6]+0.014*[#   8]
          +0.001*[#   7]
    |psi|^2 = 0.990
==== e(   9) =     5.18218 eV ==== 
     psi = 0.605*[#   5]+0.228*[#   9]+0.036*[#  10]+0.036*[#  11]+0.036*[#  12]
          +0.016*[#   6]+0.016*[#   7]+0.016*[#   8]
    |psi|^2 = 0.990
==== e(  10) =     9.13528 eV ==== 
     psi = 0.222*[#   6]+0.222*[#   7]+0.222*[#   8]+0.037*[#   5]+0.017*[#  10]
          +0.017*[#  11]+0.017*[#  12]+0.004*[#   2]+0.004*[#   3]+0.004*[#   4]
          
    |psi|^2 = 0.767
==== e(  11) =     9.52167 eV ==== 
     psi = 0.494*[#   7]+0.145*[#   6]+0.113*[#   8]+0.018*[#  11]+0.008*[#   3]
          +0.005*[#  10]+0.004*[#  12]+0.002*[#   2]+0.002*[#   4]
    |psi|^2 = 0.792
==== e(  12) =     9.52167 eV ==== 
     psi = 0.389*[#   8]+0.357*[#   6]+0.014*[#  12]+0.013*[#  10]+0.007*[#   7]
          +0.007*[#   4]+0.006*[#   2]
    |psi|^2 = 0.792
==== e(  13) =    11.85476 eV ==== 
     psi = 0.010*[#   8]+0.004*[#   7]+0.002*[#   6]
    |psi|^2 = 0.017
==== e(  14) =    11.85476 eV ==== 
     psi = 0.009*[#   6]+0.007*[#   7]
    |psi|^2 = 0.017
==== e(  15) =    14.09577 eV ==== 
     psi = 0.014*[#   6]+0.014*[#   7]+0.014*[#   8]+0.004*[#   5]
    |psi|^2 = 0.047
==== e(  16) =    15.15816 eV ==== 
     psi = 0.007*[#   6]+0.007*[#   7]+0.007*[#   8]+0.003*[#   9]
    |psi|^2 = 0.024
==== e(  17) =    15.86188 eV ==== 
     psi = 0.018*[#   6]+0.015*[#   7]
    |psi|^2 = 0.036
==== e(  18) =    15.86188 eV ==== 
     psi = 0.022*[#   8]+0.008*[#   7]+0.004*[#   6]+0.001*[#  12]
    |psi|^2 = 0.036
==== e(  19) =    18.92933 eV ==== 
     psi = 0.004*[#   6]+0.004*[#   7]+0.004*[#   8]+0.002*[#   9]
    |psi|^2 = 0.017
==== e(  20) =    22.23721 eV ==== 
     psi = 0.025*[#   6]+0.025*[#   7]+0.025*[#   8]+0.003*[#   5]+0.003*[#  10]
          +0.003*[#  11]+0.003*[#  12]
    |psi|^2 = 0.090
==== e(  21) =    22.62472 eV ==== 
     psi = 0.028*[#   7]+0.017*[#   8]+0.006*[#   6]+0.003*[#  11]+0.002*[#  12]
          
    |psi|^2 = 0.058
==== e(  22) =    22.62472 eV ==== 
     psi = 0.028*[#   6]+0.017*[#   8]+0.006*[#   7]+0.003*[#  10]+0.002*[#  12]
          
    |psi|^2 = 0.058
==== e(  23) =    25.06140 eV ==== 
     psi = 0.020*[#   6]+0.008*[#   8]+0.003*[#   7]
    |psi|^2 = 0.033
==== e(  24) =    25.06140 eV ==== 
     psi = 0.018*[#   7]+0.013*[#   8]
    |psi|^2 = 0.033
==== e(  25) =    26.09113 eV ==== 
     psi = 0.018*[#   6]+0.009*[#   7]+0.002*[#  10]+0.002*[#   8]+0.001*[#  11]
          
    |psi|^2 = 0.032
==== e(  26) =    26.09113 eV ==== 
     psi = 0.017*[#   8]+0.010*[#   7]+0.002*[#  12]+0.001*[#  11]
    |psi|^2 = 0.032
==== e(  27) =    26.67723 eV ==== 
     psi = 0.009*[#   6]+0.009*[#   7]+0.009*[#   8]+0.001*[#   5]
    |psi|^2 = 0.032
==== e(  28) =    30.82252 eV ==== 
 
    |psi|^2 = 0.000
==== e(  29) =    31.66393 eV ==== 
     psi = 0.001*[#   7]+0.001*[#   8]
    |psi|^2 = 0.003
==== e(  30) =    31.66393 eV ==== 
     psi = 0.001*[#   6]
    |psi|^2 = 0.003
==== e(  31) =    32.95307 eV ==== 
     psi = 0.002*[#   6]+0.002*[#   7]+0.002*[#   8]
    |psi|^2 = 0.008
==== e(  32) =    34.67191 eV ==== 
 
    |psi|^2 = 0.003
==== e(  33) =    34.67191 eV ==== 
     psi = 0.001*[#   6]
    |psi|^2 = 0.003

 k =  -0.1767766953  0.1767766953  0.1767766953
==== e(   1) =   -72.00811 eV ==== 
     psi = 0.997*[#   1]
    |psi|^2 = 1.000
==== e(   2) =   -38.96384 eV ==== 
     psi = 0.329*[#   2]+0.329*[#   3]+0.329*[#   4]+0.003*[#   6]+0.003*[#   7]
          +0.003*[#   8]
    |psi|^2 = 1.000
==== e(   3) =   -38.96337 eV ==== 
     psi = 0.607*[#   2]+0.262*[#   4]+0.114*[#   3]+0.010*[#   6]+0.004*[#   8]
          +0.002*[#   7]
    |psi|^2 = 1.000
==== e(   4) =   -38.96337 eV ==== 
     psi = 0.541*[#   3]+0.394*[#   4]+0.048*[#   2]+0.008*[#   7]+0.006*[#   8]
          
    |psi|^2 = 1.000
==== e(   5) =    -8.72766 eV ==== 
     psi = 0.759*[#   9]+0.173*[#   5]+0.021*[#   6]+0.021*[#   7]+0.021*[#   8]
          
    |psi|^2 = 0.999
==== e(   6) =     0.22784 eV ==== 
     psi = 0.237*[#  10]+0.237*[#  11]+0.237*[#  12]+0.157*[#   5]+0.043*[#   9]
          +0.028*[#   6]+0.028*[#   7]+0.028*[#   8]+0.001*[#   1]
    |psi|^2 = 0.995
==== e(   7) =     1.73290 eV ==== 
     psi = 0.557*[#  12]+0.340*[#  11]+0.040*[#  10]+0.033*[#   8]+0.020*[#   7]
          +0.002*[#   6]
    |psi|^2 = 0.992
==== e(   8) =     1.73290 eV ==== 
     psi = 0.584*[#  10]+0.284*[#  11]+0.068*[#  12]+0.034*[#   6]+0.017*[#   7]
          +0.004*[#   8]
    |psi|^2 = 0.992
==== e(   9) =     6.06683 eV ==== 
     psi = 0.516*[#   5]+0.180*[#   9]+0.055*[#   6]+0.055*[#   7]+0.055*[#   8]
          +0.033*[#  10]+0.033*[#  11]+0.033*[#  12]
    |psi|^2 = 0.963
==== e(  10) =     9.00467 eV ==== 
     psi = 0.157*[#   6]+0.157*[#   7]+0.157*[#   8]+0.120*[#   5]+0.051*[#  10]
          +0.051*[#  11]+0.051*[#  12]+0.005*[#   9]+0.003*[#   2]+0.003*[#   3]
          +0.003*[#   4]
    |psi|^2 = 0.758
==== e(  11) =     9.59537 eV ==== 
     psi = 0.369*[#   8]+0.189*[#   6]+0.090*[#   7]+0.021*[#  12]+0.011*[#  10]
          +0.006*[#   4]+0.005*[#  11]+0.003*[#   2]+0.002*[#   3]
    |psi|^2 = 0.697
==== e(  12) =     9.59537 eV ==== 
     psi = 0.342*[#   7]+0.243*[#   6]+0.064*[#   8]+0.020*[#  11]+0.014*[#  10]
          +0.006*[#   3]+0.004*[#   2]+0.004*[#  12]+0.001*[#   4]
    |psi|^2 = 0.697
==== e(  13) =    11.83967 eV ==== 
     psi = 0.055*[#   8]+0.029*[#   7]+0.009*[#   6]+0.004*[#  12]+0.002*[#  11]
          
    |psi|^2 = 0.102
==== e(  14) =    11.83967 eV ==== 
     psi = 0.053*[#   6]+0.033*[#   7]+0.007*[#   8]+0.004*[#  10]+0.003*[#  11]
          
    |psi|^2 = 0.102
==== e(  15) =    13.26313 eV ==== 
     psi = 0.010*[#   5]+0.003*[#   6]+0.003*[#   7]+0.003*[#   8]+0.003*[#   9]
          
    |psi|^2 = 0.024
==== e(  16) =    16.91296 eV ==== 
     psi = 0.019*[#   6]+0.019*[#   7]+0.019*[#   8]+0.006*[#   9]+0.002*[#   5]
          +0.002*[#  10]+0.002*[#  11]+0.002*[#  12]
    |psi|^2 = 0.072
==== e(  17) =    17.71290 eV ==== 
     psi = 0.012*[#   7]+0.012*[#   6]+0.002*[#   8]+0.002*[#  10]+0.002*[#  11]
          
    |psi|^2 = 0.030
==== e(  18) =    17.71290 eV ==== 
     psi = 0.015*[#   8]+0.005*[#   6]+0.005*[#   7]+0.002*[#  12]
    |psi|^2 = 0.030
==== e(  19) =    19.55778 eV ==== 
     psi = 0.025*[#   6]+0.025*[#   7]+0.025*[#   8]+0.013*[#   5]+0.007*[#  10]
          +0.007*[#  11]+0.007*[#  12]
    |psi|^2 = 0.109
==== e(  20) =    20.16359 eV ==== 
     psi = 0.039*[#   6]+0.014*[#   8]+0.012*[#   7]+0.004*[#  10]+0.001*[#  12]
          +0.001*[#  11]
    |psi|^2 = 0.072
==== e(  21) =    20.16359 eV ==== 
     psi = 0.031*[#   7]+0.029*[#   8]+0.004*[#   6]+0.003*[#  11]+0.003*[#  12]
          
    |psi|^2 = 0.072
==== e(  22) =    21.67213 eV ==== 
     psi = 0.007*[#   6]+0.007*[#   7]+0.007*[#   8]+0.002*[#   9]+0.001*[#   5]
          
    |psi|^2 = 0.026
==== e(  23) =    25.20464 eV ==== 
     psi = 0.011*[#   8]+0.009*[#   6]
    |psi|^2 = 0.022
==== e(  24) =    25.20464 eV ==== 
     psi = 0.013*[#   7]+0.005*[#   6]+0.003*[#   8]
    |psi|^2 = 0.022
==== e(  25) =    26.35227 eV ==== 
     psi = 0.021*[#   8]+0.007*[#   6]+0.005*[#   7]+0.003*[#  12]+0.001*[#  10]
          
    |psi|^2 = 0.039
==== e(  26) =    26.35227 eV ==== 
     psi = 0.017*[#   7]+0.015*[#   6]+0.003*[#  11]+0.002*[#  10]
    |psi|^2 = 0.039
==== e(  27) =    28.09990 eV ==== 
     psi = 0.003*[#   6]+0.003*[#   7]+0.003*[#   8]+0.002*[#   5]
    |psi|^2 = 0.011
==== e(  28) =    29.82521 eV ==== 
     psi = 0.003*[#   6]+0.003*[#   7]+0.003*[#   8]+0.001*[#   5]
    |psi|^2 = 0.014
==== e(  29) =    31.19965 eV ==== 
     psi = 0.002*[#   6]+0.001*[#   8]
    |psi|^2 = 0.003
==== e(  30) =    31.19965 eV ==== 
     psi = 0.002*[#   7]
    |psi|^2 = 0.003
==== e(  31) =    31.28804 eV ==== 
 
    |psi|^2 = 0.000
==== e(  32) =    33.93580 eV ==== 
     psi = 0.002*[#   7]+0.001*[#   8]
    |psi|^2 = 0.005
==== e(  33) =    33.93580 eV ==== 
     psi = 0.002*[#   6]+0.001*[#   8]
    |psi|^2 = 0.005

 k =  -0.2651650429  0.2651650429  0.2651650429
==== e(   1) =   -72.00809 eV ==== 
     psi = 0.997*[#   1]
    |psi|^2 = 1.000
==== e(   2) =   -38.96426 eV ==== 
     psi = 0.330*[#   2]+0.330*[#   3]+0.330*[#   4]+0.002*[#   6]+0.002*[#   7]
          +0.002*[#   8]
    |psi|^2 = 1.000
==== e(   3) =   -38.96343 eV ==== 
     psi = 0.422*[#   2]+0.385*[#   4]+0.177*[#   3]+0.007*[#   6]+0.006*[#   8]
          +0.003*[#   7]
    |psi|^2 = 1.000
==== e(   4) =   -38.96343 eV ==== 
     psi = 0.479*[#   3]+0.271*[#   4]+0.234*[#   2]+0.007*[#   7]+0.004*[#   8]
          +0.004*[#   6]
    |psi|^2 = 1.000
==== e(   5) =    -8.54196 eV ==== 
     psi = 0.799*[#   9]+0.099*[#   5]+0.033*[#   6]+0.033*[#   7]+0.033*[#   8]
          
    |psi|^2 = 0.999
==== e(   6) =    -0.55540 eV ==== 
     psi = 0.220*[#  10]+0.220*[#  11]+0.220*[#  12]+0.187*[#   5]+0.045*[#   6]
          +0.045*[#   7]+0.045*[#   8]+0.016*[#   9]+0.001*[#   1]
    |psi|^2 = 0.998
==== e(   7) =     1.63575 eV ==== 
     psi = 0.518*[#  10]+0.284*[#  12]+0.118*[#  11]+0.041*[#   6]+0.023*[#   8]
          +0.009*[#   7]
    |psi|^2 = 0.993
==== e(   8) =     1.63575 eV ==== 
     psi = 0.495*[#  11]+0.329*[#  12]+0.095*[#  10]+0.040*[#   7]+0.026*[#   8]
          +0.008*[#   6]
    |psi|^2 = 0.993
==== e(   9) =     6.36519 eV ==== 
     psi = 0.470*[#   5]+0.149*[#   9]+0.083*[#   6]+0.083*[#   7]+0.083*[#   8]
          +0.012*[#  10]+0.012*[#  11]+0.012*[#  12]
    |psi|^2 = 0.906
==== e(  10) =     9.32739 eV ==== 
     psi = 0.298*[#   8]+0.232*[#   6]+0.023*[#   7]+0.020*[#  12]+0.015*[#  10]
          +0.005*[#   4]+0.004*[#   2]+0.002*[#  11]
    |psi|^2 = 0.599
==== e(  11) =     9.32739 eV ==== 
     psi = 0.346*[#   7]+0.137*[#   6]+0.070*[#   8]+0.023*[#  11]+0.009*[#  10]
          +0.006*[#   3]+0.005*[#  12]+0.002*[#   2]+0.001*[#   4]
    |psi|^2 = 0.599
==== e(  12) =     9.39919 eV ==== 
     psi = 0.189*[#   5]+0.107*[#   6]+0.107*[#   7]+0.107*[#   8]+0.080*[#  10]
          +0.080*[#  11]+0.080*[#  12]+0.009*[#   9]+0.002*[#   2]+0.002*[#   3]
          +0.002*[#   4]+0.001*[#   1]
    |psi|^2 = 0.764
==== e(  13) =    12.95979 eV ==== 
     psi = 0.054*[#   8]+0.045*[#   6]+0.038*[#   7]+0.006*[#  12]+0.005*[#  10]
          +0.005*[#  11]
    |psi|^2 = 0.156
==== e(  14) =    12.95979 eV ==== 
     psi = 0.053*[#   7]+0.047*[#   6]+0.037*[#   8]+0.006*[#  11]+0.006*[#  10]
          +0.004*[#  12]
    |psi|^2 = 0.156
==== e(  15) =    13.14654 eV ==== 
     psi = 0.024*[#   5]+0.006*[#   9]+0.004*[#  10]+0.004*[#  11]+0.004*[#  12]
          +0.002*[#   6]+0.002*[#   7]+0.002*[#   8]
    |psi|^2 = 0.047
==== e(  16) =    16.82175 eV ==== 
     psi = 0.042*[#   6]+0.042*[#   7]+0.042*[#   8]+0.016*[#   9]+0.015*[#   5]
          +0.010*[#  10]+0.010*[#  11]+0.010*[#  12]
    |psi|^2 = 0.188
==== e(  17) =    17.09496 eV ==== 
     psi = 0.067*[#   8]+0.029*[#   6]+0.020*[#   7]+0.009*[#  12]+0.004*[#  10]
          +0.003*[#  11]+0.001*[#   4]
    |psi|^2 = 0.133
==== e(  18) =    17.09496 eV ==== 
     psi = 0.057*[#   7]+0.048*[#   6]+0.010*[#   8]+0.008*[#  11]+0.007*[#  10]
          +0.001*[#  12]+0.001*[#   3]
    |psi|^2 = 0.133
==== e(  19) =    20.01295 eV ==== 
     psi = 0.009*[#   5]+0.007*[#   6]+0.007*[#   7]+0.007*[#   8]+0.004*[#  10]
          +0.004*[#  11]+0.004*[#  12]+0.001*[#   9]
    |psi|^2 = 0.045
==== e(  20) =    20.63139 eV ==== 
     psi = 0.005*[#   8]+0.002*[#   7]+0.001*[#   6]
    |psi|^2 = 0.008
==== e(  21) =    20.63139 eV ==== 
     psi = 0.004*[#   6]+0.004*[#   7]
    |psi|^2 = 0.008
==== e(  22) =    24.33437 eV ==== 
     psi = 0.003*[#   6]+0.003*[#   7]+0.003*[#   8]+0.001*[#   9]
    |psi|^2 = 0.011
==== e(  23) =    25.08507 eV ==== 
     psi = 0.007*[#   6]+0.003*[#   8]+0.001*[#   7]
    |psi|^2 = 0.012
==== e(  24) =    25.08507 eV ==== 
     psi = 0.006*[#   7]+0.005*[#   8]
    |psi|^2 = 0.012
==== e(  25) =    26.33046 eV ==== 
     psi = 0.003*[#   5]+0.003*[#   6]+0.003*[#   7]+0.003*[#   8]+0.001*[#  10]
          +0.001*[#  11]+0.001*[#  12]
    |psi|^2 = 0.019
==== e(  26) =    26.34177 eV ==== 
     psi = 0.020*[#   8]+0.010*[#   6]+0.009*[#   7]+0.003*[#  12]+0.001*[#  10]
          +0.001*[#  11]
    |psi|^2 = 0.045
==== e(  27) =    26.34177 eV ==== 
     psi = 0.017*[#   7]+0.016*[#   6]+0.006*[#   8]+0.002*[#  10]+0.002*[#  11]
          
    |psi|^2 = 0.045
==== e(  28) =    29.16673 eV ==== 
 
    |psi|^2 = 0.001
==== e(  29) =    29.19196 eV ==== 
     psi = 0.002*[#   6]
    |psi|^2 = 0.004
==== e(  30) =    29.19196 eV ==== 
     psi = 0.002*[#   7]+0.001*[#   8]
    |psi|^2 = 0.004
==== e(  31) =    31.92690 eV ==== 
 
    |psi|^2 = 0.000
==== e(  32) =    32.81114 eV ==== 
     psi = 0.003*[#   6]+0.002*[#   7]+0.002*[#   8]
    |psi|^2 = 0.010
==== e(  33) =    32.81114 eV ==== 
     psi = 0.003*[#   7]+0.003*[#   8]+0.002*[#   6]
    |psi|^2 = 0.010

 k =   0.3535533906 -0.3535533906 -0.3535533906
==== e(   1) =   -72.00809 eV ==== 
     psi = 0.996*[#   1]+0.001*[#  10]+0.001*[#  11]+0.001*[#  12]
    |psi|^2 = 1.000
==== e(   2) =   -38.96445 eV ==== 
     psi = 0.330*[#   2]+0.330*[#   3]+0.330*[#   4]+0.002*[#   6]+0.002*[#   7]
          +0.002*[#   8]
    |psi|^2 = 1.000
==== e(   3) =   -38.96346 eV ==== 
     psi = 0.592*[#   2]+0.224*[#   4]+0.167*[#   3]+0.009*[#   6]+0.003*[#   8]
          +0.003*[#   7]
    |psi|^2 = 1.000
==== e(   4) =   -38.96346 eV ==== 
     psi = 0.489*[#   3]+0.431*[#   4]+0.063*[#   2]+0.008*[#   7]+0.007*[#   8]
          
    |psi|^2 = 1.000
==== e(   5) =    -8.45962 eV ==== 
     psi = 0.818*[#   9]+0.069*[#   5]+0.037*[#   6]+0.037*[#   7]+0.037*[#   8]
          
    |psi|^2 = 0.999
==== e(   6) =    -0.84666 eV ==== 
     psi = 0.215*[#  10]+0.215*[#  11]+0.215*[#  12]+0.199*[#   5]+0.051*[#   6]
          +0.051*[#   7]+0.051*[#   8]+0.001*[#   1]
    |psi|^2 = 0.999
==== e(   7) =     1.59760 eV ==== 
     psi = 0.517*[#  11]+0.386*[#  10]+0.045*[#   7]+0.034*[#   6]+0.010*[#  12]
          
    |psi|^2 = 0.993
==== e(   8) =     1.59760 eV ==== 
     psi = 0.599*[#  12]+0.223*[#  10]+0.092*[#  11]+0.052*[#   8]+0.019*[#   6]
          +0.008*[#   7]
    |psi|^2 = 0.993
==== e(   9) =     6.37559 eV ==== 
     psi = 0.462*[#   5]+0.142*[#   9]+0.086*[#   6]+0.086*[#   7]+0.086*[#   8]
          +0.006*[#  10]+0.006*[#  11]+0.006*[#  12]
    |psi|^2 = 0.883
==== e(  10) =     9.18617 eV ==== 
     psi = 0.247*[#   8]+0.238*[#   6]+0.050*[#   7]+0.017*[#  12]+0.017*[#  10]
          +0.004*[#   4]+0.004*[#   2]+0.004*[#  11]
    |psi|^2 = 0.582
==== e(  11) =     9.18617 eV ==== 
     psi = 0.307*[#   7]+0.119*[#   6]+0.110*[#   8]+0.021*[#  11]+0.008*[#  10]
          +0.008*[#  12]+0.005*[#   3]+0.002*[#   2]+0.002*[#   4]
    |psi|^2 = 0.582
==== e(  12) =     9.63513 eV ==== 
     psi = 0.201*[#   5]+0.091*[#   6]+0.091*[#   7]+0.091*[#   8]+0.082*[#  10]
          +0.082*[#  11]+0.082*[#  12]+0.005*[#   9]+0.001*[#   2]+0.001*[#   3]
          +0.001*[#   4]+0.001*[#   1]
    |psi|^2 = 0.731
==== e(  13) =    13.59531 eV ==== 
     psi = 0.053*[#   5]+0.011*[#  10]+0.011*[#  11]+0.011*[#  12]+0.004*[#   6]
          +0.004*[#   7]+0.004*[#   8]
    |psi|^2 = 0.101
==== e(  14) =    14.36469 eV ==== 
     psi = 0.024*[#   7]+0.006*[#   6]+0.006*[#  11]+0.005*[#   8]+0.002*[#  10]
          +0.001*[#  12]
    |psi|^2 = 0.046
==== e(  15) =    14.36469 eV ==== 
     psi = 0.018*[#   8]+0.017*[#   6]+0.005*[#  12]+0.005*[#  10]
    |psi|^2 = 0.046
==== e(  16) =    15.32755 eV ==== 
     psi = 0.105*[#   8]+0.097*[#   7]+0.029*[#   6]+0.013*[#  12]+0.012*[#  11]
          +0.004*[#  10]+0.002*[#   4]+0.002*[#   3]
    |psi|^2 = 0.263
==== e(  17) =    15.32755 eV ==== 
     psi = 0.125*[#   6]+0.057*[#   7]+0.050*[#   8]+0.015*[#  10]+0.007*[#  11]
          +0.006*[#  12]+0.002*[#   2]+0.001*[#   3]
    |psi|^2 = 0.263
==== e(  18) =    15.65261 eV ==== 
     psi = 0.044*[#   6]+0.044*[#   7]+0.044*[#   8]+0.029*[#   9]+0.009*[#  10]
          +0.009*[#  11]+0.009*[#  12]+0.003*[#   5]
    |psi|^2 = 0.195
==== e(  19) =    22.17526 eV ==== 
     psi = 0.011*[#   5]+0.011*[#   6]+0.011*[#   7]+0.011*[#   8]+0.006*[#  10]
          +0.006*[#  11]+0.006*[#  12]+0.002*[#   9]
    |psi|^2 = 0.066
==== e(  20) =    22.37471 eV ==== 
     psi = 0.003*[#   6]+0.002*[#   8]
    |psi|^2 = 0.005
==== e(  21) =    22.37471 eV ==== 
     psi = 0.003*[#   7]+0.001*[#   8]
    |psi|^2 = 0.005
==== e(  22) =    23.71728 eV ==== 
     psi = 0.001*[#   9]
    |psi|^2 = 0.003
==== e(  23) =    24.20068 eV ==== 
 
    |psi|^2 = 0.002
==== e(  24) =    24.20068 eV ==== 
 
    |psi|^2 = 0.002
==== e(  25) =    26.19258 eV ==== 
     psi = 0.024*[#   8]+0.018*[#   7]+0.002*[#   6]+0.002*[#  12]+0.001*[#  11]
          
    |psi|^2 = 0.048
==== e(  26) =    26.19258 eV ==== 
     psi = 0.027*[#   6]+0.011*[#   7]+0.006*[#   8]+0.002*[#  10]
    |psi|^2 = 0.048
==== e(  27) =    26.47497 eV ==== 
 
    |psi|^2 = 0.001
==== e(  28) =    28.44235 eV ==== 
     psi = 0.004*[#   8]+0.002*[#   6]+0.001*[#  12]
    |psi|^2 = 0.009
==== e(  29) =    28.44235 eV ==== 
     psi = 0.004*[#   7]+0.002*[#   6]+0.001*[#  11]
    |psi|^2 = 0.009
==== e(  30) =    28.98820 eV ==== 
     psi = 0.001*[#   6]+0.001*[#   7]+0.001*[#   8]
    |psi|^2 = 0.006
==== e(  31) =    31.34625 eV ==== 
 
    |psi|^2 = 0.000
==== e(  32) =    32.29988 eV ==== 
 
    |psi|^2 = 0.000
==== e(  33) =    32.36095 eV ==== 
     psi = 0.005*[#   6]+0.005*[#   7]
    |psi|^2 = 0.011

 k =   0.2651650429 -0.2651650429 -0.2651650429
==== e(   1) =   -72.00809 eV ==== 
     psi = 0.997*[#   1]
    |psi|^2 = 1.000
==== e(   2) =   -38.96426 eV ==== 
     psi = 0.330*[#   2]+0.330*[#   3]+0.330*[#   4]+0.002*[#   6]+0.002*[#   7]
          +0.002*[#   8]
    |psi|^2 = 1.000
==== e(   3) =   -38.96343 eV ==== 
     psi = 0.634*[#   4]+0.258*[#   3]+0.092*[#   2]+0.010*[#   8]+0.004*[#   7]
          +0.001*[#   6]
    |psi|^2 = 1.000
==== e(   4) =   -38.96343 eV ==== 
     psi = 0.564*[#   2]+0.398*[#   3]+0.022*[#   4]+0.009*[#   6]+0.006*[#   7]
          
    |psi|^2 = 1.000
==== e(   5) =    -8.54196 eV ==== 
     psi = 0.799*[#   9]+0.099*[#   5]+0.033*[#   6]+0.033*[#   7]+0.033*[#   8]
          
    |psi|^2 = 0.999
==== e(   6) =    -0.55540 eV ==== 
     psi = 0.220*[#  10]+0.220*[#  11]+0.220*[#  12]+0.187*[#   5]+0.045*[#   6]
          +0.045*[#   7]+0.045*[#   8]+0.016*[#   9]+0.001*[#   1]
    |psi|^2 = 0.998
==== e(   7) =     1.63575 eV ==== 
     psi = 0.530*[#  11]+0.221*[#  12]+0.169*[#  10]+0.042*[#   7]+0.018*[#   8]
          +0.013*[#   6]
    |psi|^2 = 0.993
==== e(   8) =     1.63575 eV ==== 
     psi = 0.444*[#  10]+0.392*[#  12]+0.083*[#  11]+0.035*[#   6]+0.031*[#   8]
          +0.007*[#   7]
    |psi|^2 = 0.993
==== e(   9) =     6.36519 eV ==== 
     psi = 0.470*[#   5]+0.149*[#   9]+0.083*[#   6]+0.083*[#   7]+0.083*[#   8]
          +0.012*[#  10]+0.012*[#  11]+0.012*[#  12]
    |psi|^2 = 0.906
==== e(  10) =     9.32739 eV ==== 
     psi = 0.340*[#   6]+0.183*[#   8]+0.029*[#   7]+0.023*[#  10]+0.012*[#  12]
          +0.006*[#   2]+0.003*[#   4]+0.002*[#  11]
    |psi|^2 = 0.599
==== e(  11) =     9.32739 eV ==== 
     psi = 0.339*[#   7]+0.185*[#   8]+0.028*[#   6]+0.023*[#  11]+0.012*[#  12]
          +0.006*[#   3]+0.003*[#   4]+0.002*[#  10]
    |psi|^2 = 0.599
==== e(  12) =     9.39919 eV ==== 
     psi = 0.189*[#   5]+0.107*[#   6]+0.107*[#   7]+0.107*[#   8]+0.080*[#  10]
          +0.080*[#  11]+0.080*[#  12]+0.009*[#   9]+0.002*[#   2]+0.002*[#   3]
          +0.002*[#   4]+0.001*[#   1]
    |psi|^2 = 0.764
==== e(  13) =    12.95979 eV ==== 
     psi = 0.077*[#   6]+0.044*[#   8]+0.015*[#   7]+0.009*[#  10]+0.005*[#  12]
          +0.002*[#  11]+0.001*[#   2]
    |psi|^2 = 0.156
==== e(  14) =    12.95979 eV ==== 
     psi = 0.076*[#   7]+0.047*[#   8]+0.014*[#   6]+0.009*[#  11]+0.006*[#  12]
          +0.002*[#  10]+0.001*[#   3]
    |psi|^2 = 0.156
==== e(  15) =    13.14654 eV ==== 
     psi = 0.024*[#   5]+0.006*[#   9]+0.004*[#  10]+0.004*[#  11]+0.004*[#  12]
          +0.002*[#   6]+0.002*[#   7]+0.002*[#   8]
    |psi|^2 = 0.047
==== e(  16) =    16.82175 eV ==== 
     psi = 0.042*[#   6]+0.042*[#   7]+0.042*[#   8]+0.016*[#   9]+0.015*[#   5]
          +0.010*[#  10]+0.010*[#  11]+0.010*[#  12]
    |psi|^2 = 0.188
==== e(  17) =    17.09496 eV ==== 
     psi = 0.067*[#   6]+0.028*[#   7]+0.020*[#   8]+0.009*[#  10]+0.004*[#  11]
          +0.003*[#  12]+0.001*[#   2]
    |psi|^2 = 0.133
==== e(  18) =    17.09496 eV ==== 
     psi = 0.057*[#   8]+0.049*[#   7]+0.009*[#   6]+0.008*[#  12]+0.007*[#  11]
          +0.001*[#  10]+0.001*[#   4]
    |psi|^2 = 0.133
==== e(  19) =    20.01295 eV ==== 
     psi = 0.009*[#   5]+0.007*[#   6]+0.007*[#   7]+0.007*[#   8]+0.004*[#  10]
          +0.004*[#  11]+0.004*[#  12]+0.001*[#   9]
    |psi|^2 = 0.045
==== e(  20) =    20.63139 eV ==== 
     psi = 0.004*[#   8]+0.002*[#   6]+0.002*[#   7]
    |psi|^2 = 0.008
==== e(  21) =    20.63139 eV ==== 
     psi = 0.003*[#   6]+0.003*[#   7]+0.002*[#   8]
    |psi|^2 = 0.008
==== e(  22) =    24.33437 eV ==== 
     psi = 0.003*[#   6]+0.003*[#   7]+0.003*[#   8]+0.001*[#   9]
    |psi|^2 = 0.011
==== e(  23) =    25.08507 eV ==== 
     psi = 0.005*[#   7]+0.003*[#   6]+0.003*[#   8]
    |psi|^2 = 0.012
==== e(  24) =    25.08507 eV ==== 
     psi = 0.005*[#   8]+0.004*[#   6]+0.002*[#   7]
    |psi|^2 = 0.012
==== e(  25) =    26.33046 eV ==== 
     psi = 0.003*[#   5]+0.003*[#   6]+0.003*[#   7]+0.003*[#   8]+0.001*[#  10]
          +0.001*[#  11]+0.001*[#  12]
    |psi|^2 = 0.019
==== e(  26) =    26.34177 eV ==== 
     psi = 0.022*[#   6]+0.012*[#   7]+0.005*[#   8]+0.003*[#  10]+0.002*[#  11]
          
    |psi|^2 = 0.045
==== e(  27) =    26.34177 eV ==== 
     psi = 0.021*[#   8]+0.014*[#   7]+0.004*[#   6]+0.003*[#  12]+0.002*[#  11]
          
    |psi|^2 = 0.045
==== e(  28) =    29.16673 eV ==== 
 
    |psi|^2 = 0.001
==== e(  29) =    29.19196 eV ==== 
     psi = 0.002*[#   8]
    |psi|^2 = 0.004
==== e(  30) =    29.19196 eV ==== 
     psi = 0.002*[#   6]+0.001*[#   7]
    |psi|^2 = 0.004
==== e(  31) =    31.92690 eV ==== 
 
    |psi|^2 = 0.000
==== e(  32) =    32.81114 eV ==== 
     psi = 0.003*[#   8]+0.003*[#   6]+0.002*[#   7]
    |psi|^2 = 0.010
==== e(  33) =    32.81114 eV ==== 
     psi = 0.003*[#   7]+0.003*[#   6]+0.002*[#   8]
    |psi|^2 = 0.010

 k =   0.1767766953 -0.1767766953 -0.1767766953
==== e(   1) =   -72.00811 eV ==== 
     psi = 0.997*[#   1]
    |psi|^2 = 1.000
==== e(   2) =   -38.96384 eV ==== 
     psi = 0.329*[#   2]+0.329*[#   3]+0.329*[#   4]+0.003*[#   6]+0.003*[#   7]
          +0.003*[#   8]
    |psi|^2 = 1.000
==== e(   3) =   -38.96337 eV ==== 
     psi = 0.535*[#   3]+0.360*[#   4]+0.088*[#   2]+0.008*[#   7]+0.006*[#   8]
          +0.001*[#   6]
    |psi|^2 = 1.000
==== e(   4) =   -38.96337 eV ==== 
     psi = 0.568*[#   2]+0.296*[#   4]+0.120*[#   3]+0.009*[#   6]+0.005*[#   8]
          +0.002*[#   7]
    |psi|^2 = 1.000
==== e(   5) =    -8.72766 eV ==== 
     psi = 0.759*[#   9]+0.173*[#   5]+0.021*[#   6]+0.021*[#   7]+0.021*[#   8]
          
    |psi|^2 = 0.999
==== e(   6) =     0.22784 eV ==== 
     psi = 0.237*[#  10]+0.237*[#  11]+0.237*[#  12]+0.157*[#   5]+0.043*[#   9]
          +0.028*[#   6]+0.028*[#   7]+0.028*[#   8]+0.001*[#   1]
    |psi|^2 = 0.995
==== e(   7) =     1.73290 eV ==== 
     psi = 0.324*[#  10]+0.321*[#  11]+0.292*[#  12]+0.019*[#   6]+0.019*[#   7]
          +0.017*[#   8]
    |psi|^2 = 0.992
==== e(   8) =     1.73290 eV ==== 
     psi = 0.332*[#  12]+0.304*[#  11]+0.301*[#  10]+0.020*[#   8]+0.018*[#   7]
          +0.018*[#   6]
    |psi|^2 = 0.992
==== e(   9) =     6.06683 eV ==== 
     psi = 0.516*[#   5]+0.180*[#   9]+0.055*[#   6]+0.055*[#   7]+0.055*[#   8]
          +0.033*[#  10]+0.033*[#  11]+0.033*[#  12]
    |psi|^2 = 0.963
==== e(  10) =     9.00467 eV ==== 
     psi = 0.157*[#   6]+0.157*[#   7]+0.157*[#   8]+0.120*[#   5]+0.051*[#  10]
          +0.051*[#  11]+0.051*[#  12]+0.005*[#   9]+0.003*[#   2]+0.003*[#   3]
          +0.003*[#   4]
    |psi|^2 = 0.758
==== e(  11) =     9.59537 eV ==== 
     psi = 0.411*[#   7]+0.176*[#   8]+0.061*[#   6]+0.023*[#  11]+0.010*[#  12]
          +0.007*[#   3]+0.004*[#  10]+0.003*[#   4]+0.001*[#   2]
    |psi|^2 = 0.697
==== e(  12) =     9.59537 eV ==== 
     psi = 0.371*[#   6]+0.256*[#   8]+0.021*[#   7]+0.021*[#  10]+0.015*[#  12]
          +0.006*[#   2]+0.004*[#   4]+0.001*[#  11]
    |psi|^2 = 0.697
==== e(  13) =    11.83967 eV ==== 
     psi = 0.038*[#   6]+0.029*[#   7]+0.026*[#   8]+0.003*[#  10]+0.002*[#  11]
          +0.002*[#  12]
    |psi|^2 = 0.102
==== e(  14) =    11.83967 eV ==== 
     psi = 0.036*[#   8]+0.033*[#   7]+0.024*[#   6]+0.003*[#  12]+0.003*[#  11]
          +0.002*[#  10]
    |psi|^2 = 0.102
==== e(  15) =    13.26313 eV ==== 
     psi = 0.010*[#   5]+0.003*[#   6]+0.003*[#   7]+0.003*[#   8]+0.003*[#   9]
          
    |psi|^2 = 0.024
==== e(  16) =    16.91296 eV ==== 
     psi = 0.019*[#   6]+0.019*[#   7]+0.019*[#   8]+0.006*[#   9]+0.002*[#   5]
          +0.002*[#  10]+0.002*[#  11]+0.002*[#  12]
    |psi|^2 = 0.072
==== e(  17) =    17.71290 eV ==== 
     psi = 0.013*[#   6]+0.008*[#   8]+0.004*[#   7]+0.002*[#  10]+0.001*[#  12]
          
    |psi|^2 = 0.030
==== e(  18) =    17.71290 eV ==== 
     psi = 0.013*[#   7]+0.009*[#   8]+0.004*[#   6]+0.002*[#  11]+0.001*[#  12]
          
    |psi|^2 = 0.030
==== e(  19) =    19.55778 eV ==== 
     psi = 0.025*[#   6]+0.025*[#   7]+0.025*[#   8]+0.013*[#   5]+0.007*[#  10]
          +0.007*[#  11]+0.007*[#  12]
    |psi|^2 = 0.109
==== e(  20) =    20.16359 eV ==== 
     psi = 0.032*[#   7]+0.017*[#   8]+0.016*[#   6]+0.003*[#  11]+0.002*[#  12]
          +0.002*[#  10]
    |psi|^2 = 0.072
==== e(  21) =    20.16359 eV ==== 
     psi = 0.027*[#   6]+0.026*[#   8]+0.011*[#   7]+0.003*[#  10]+0.003*[#  12]
          +0.001*[#  11]
    |psi|^2 = 0.072
==== e(  22) =    21.67213 eV ==== 
     psi = 0.007*[#   6]+0.007*[#   7]+0.007*[#   8]+0.002*[#   9]+0.001*[#   5]
          
    |psi|^2 = 0.026
==== e(  23) =    25.20464 eV ==== 
     psi = 0.011*[#   6]+0.006*[#   7]+0.004*[#   8]
    |psi|^2 = 0.022
==== e(  24) =    25.20464 eV ==== 
     psi = 0.011*[#   8]+0.008*[#   7]+0.003*[#   6]
    |psi|^2 = 0.022
==== e(  25) =    26.35227 eV ==== 
     psi = 0.020*[#   8]+0.012*[#   7]+0.003*[#  12]+0.002*[#  11]+0.001*[#   6]
          
    |psi|^2 = 0.039
==== e(  26) =    26.35227 eV ==== 
     psi = 0.021*[#   6]+0.010*[#   7]+0.003*[#  10]+0.002*[#   8]+0.002*[#  11]
          
    |psi|^2 = 0.039
==== e(  27) =    28.09990 eV ==== 
     psi = 0.003*[#   6]+0.003*[#   7]+0.003*[#   8]+0.002*[#   5]
    |psi|^2 = 0.011
==== e(  28) =    29.82521 eV ==== 
     psi = 0.003*[#   6]+0.003*[#   7]+0.003*[#   8]+0.001*[#   5]
    |psi|^2 = 0.014
==== e(  29) =    31.19965 eV ==== 
     psi = 0.002*[#   6]+0.001*[#   8]
    |psi|^2 = 0.003
==== e(  30) =    31.19965 eV ==== 
     psi = 0.002*[#   7]
    |psi|^2 = 0.003
==== e(  31) =    31.28804 eV ==== 
 
    |psi|^2 = 0.000
==== e(  32) =    33.93580 eV ==== 
     psi = 0.002*[#   6]+0.001*[#   7]
    |psi|^2 = 0.005
==== e(  33) =    33.93580 eV ==== 
     psi = 0.002*[#   8]+0.001*[#   7]
    |psi|^2 = 0.005

 k =   0.0883883476 -0.0883883476 -0.0883883476
==== e(   1) =   -72.00812 eV ==== 
     psi = 0.998*[#   1]
    |psi|^2 = 1.000
==== e(   2) =   -38.96346 eV ==== 
     psi = 0.328*[#   2]+0.328*[#   3]+0.328*[#   4]+0.005*[#   6]+0.005*[#   7]
          +0.005*[#   8]
    |psi|^2 = 1.000
==== e(   3) =   -38.96331 eV ==== 
     psi = 0.584*[#   2]+0.213*[#   3]+0.187*[#   4]+0.009*[#   6]+0.003*[#   7]
          +0.003*[#   8]
    |psi|^2 = 1.000
==== e(   4) =   -38.96331 eV ==== 
     psi = 0.469*[#   4]+0.443*[#   3]+0.072*[#   2]+0.007*[#   8]+0.007*[#   7]
          +0.001*[#   6]
    |psi|^2 = 1.000
==== e(   5) =    -8.89790 eV ==== 
     psi = 0.726*[#   9]+0.250*[#   5]+0.007*[#   6]+0.007*[#   7]+0.007*[#   8]
          +0.001*[#   1]
    |psi|^2 = 0.999
==== e(   6) =     1.25411 eV ==== 
     psi = 0.274*[#  10]+0.274*[#  11]+0.274*[#  12]+0.095*[#   5]+0.038*[#   9]
          +0.012*[#   6]+0.012*[#   7]+0.012*[#   8]
    |psi|^2 = 0.991
==== e(   7) =     1.83821 eV ==== 
     psi = 0.625*[#  12]+0.193*[#  10]+0.140*[#  11]+0.021*[#   8]+0.006*[#   6]
          +0.005*[#   7]
    |psi|^2 = 0.990
==== e(   8) =     1.83821 eV ==== 
     psi = 0.498*[#  11]+0.446*[#  10]+0.017*[#   7]+0.015*[#   6]+0.014*[#  12]
          
    |psi|^2 = 0.990
==== e(   9) =     5.18218 eV ==== 
     psi = 0.605*[#   5]+0.228*[#   9]+0.036*[#  10]+0.036*[#  11]+0.036*[#  12]
          +0.016*[#   6]+0.016*[#   7]+0.016*[#   8]
    |psi|^2 = 0.990
==== e(  10) =     9.13528 eV ==== 
     psi = 0.222*[#   6]+0.222*[#   7]+0.222*[#   8]+0.037*[#   5]+0.017*[#  10]
          +0.017*[#  11]+0.017*[#  12]+0.004*[#   2]+0.004*[#   3]+0.004*[#   4]
          
    |psi|^2 = 0.767
==== e(  11) =     9.52167 eV ==== 
     psi = 0.463*[#   8]+0.227*[#   6]+0.062*[#   7]+0.017*[#  12]+0.008*[#  10]
          +0.008*[#   4]+0.004*[#   2]+0.002*[#  11]+0.001*[#   3]
    |psi|^2 = 0.792
==== e(  12) =     9.52167 eV ==== 
     psi = 0.439*[#   7]+0.275*[#   6]+0.038*[#   8]+0.016*[#  11]+0.010*[#  10]
          +0.007*[#   3]+0.005*[#   2]+0.001*[#  12]
    |psi|^2 = 0.792
==== e(  13) =    11.85476 eV ==== 
     psi = 0.009*[#   7]+0.007*[#   6]
    |psi|^2 = 0.017
==== e(  14) =    11.85476 eV ==== 
     psi = 0.011*[#   8]+0.004*[#   6]+0.002*[#   7]
    |psi|^2 = 0.017
==== e(  15) =    14.09577 eV ==== 
     psi = 0.014*[#   6]+0.014*[#   7]+0.014*[#   8]+0.004*[#   5]
    |psi|^2 = 0.047
==== e(  16) =    15.15816 eV ==== 
     psi = 0.007*[#   6]+0.007*[#   7]+0.007*[#   8]+0.003*[#   9]
    |psi|^2 = 0.024
==== e(  17) =    15.86188 eV ==== 
     psi = 0.020*[#   7]+0.013*[#   6]+0.001*[#  11]
    |psi|^2 = 0.036
==== e(  18) =    15.86188 eV ==== 
     psi = 0.021*[#   8]+0.010*[#   6]+0.002*[#   7]+0.001*[#  12]
    |psi|^2 = 0.036
==== e(  19) =    18.92933 eV ==== 
     psi = 0.004*[#   6]+0.004*[#   7]+0.004*[#   8]+0.002*[#   9]
    |psi|^2 = 0.017
==== e(  20) =    22.23721 eV ==== 
     psi = 0.025*[#   6]+0.025*[#   7]+0.025*[#   8]+0.003*[#   5]+0.003*[#  10]
          +0.003*[#  11]+0.003*[#  12]
    |psi|^2 = 0.090
==== e(  21) =    22.62472 eV ==== 
     psi = 0.030*[#   8]+0.017*[#   7]+0.005*[#   6]+0.003*[#  12]+0.002*[#  11]
          
    |psi|^2 = 0.058
==== e(  22) =    22.62472 eV ==== 
     psi = 0.030*[#   6]+0.018*[#   7]+0.004*[#   8]+0.003*[#  10]+0.002*[#  11]
          
    |psi|^2 = 0.058
==== e(  23) =    25.06140 eV ==== 
     psi = 0.020*[#   7]+0.009*[#   6]+0.002*[#   8]
    |psi|^2 = 0.033
==== e(  24) =    25.06140 eV ==== 
     psi = 0.018*[#   8]+0.012*[#   6]
    |psi|^2 = 0.033
==== e(  25) =    26.09113 eV ==== 
     psi = 0.015*[#   7]+0.012*[#   6]+0.002*[#  11]+0.002*[#  10]
    |psi|^2 = 0.032
==== e(  26) =    26.09113 eV ==== 
     psi = 0.018*[#   8]+0.007*[#   6]+0.003*[#   7]+0.002*[#  12]
    |psi|^2 = 0.032
==== e(  27) =    26.67723 eV ==== 
     psi = 0.009*[#   6]+0.009*[#   7]+0.009*[#   8]+0.001*[#   5]
    |psi|^2 = 0.032
==== e(  28) =    30.82252 eV ==== 
 
    |psi|^2 = 0.000
==== e(  29) =    31.66393 eV ==== 
     psi = 0.002*[#   8]+0.001*[#   6]
    |psi|^2 = 0.003
==== e(  30) =    31.66393 eV ==== 
     psi = 0.002*[#   7]
    |psi|^2 = 0.003
==== e(  31) =    32.95307 eV ==== 
     psi = 0.002*[#   6]+0.002*[#   7]+0.002*[#   8]
    |psi|^2 = 0.008
==== e(  32) =    34.67191 eV ==== 
 
    |psi|^2 = 0.003
==== e(  33) =    34.67191 eV ==== 
 
    |psi|^2 = 0.003

 k =   0.0883883476 -0.0883883476  0.0883883476
==== e(   1) =   -72.00812 eV ==== 
     psi = 0.998*[#   1]
    |psi|^2 = 1.000
==== e(   2) =   -38.96346 eV ==== 
     psi = 0.328*[#   2]+0.328*[#   3]+0.328*[#   4]+0.005*[#   6]+0.005*[#   7]
          +0.005*[#   8]
    |psi|^2 = 1.000
==== e(   3) =   -38.96331 eV ==== 
     psi = 0.490*[#   2]+0.403*[#   4]+0.091*[#   3]+0.008*[#   6]+0.006*[#   8]
          +0.001*[#   7]
    |psi|^2 = 1.000
==== e(   4) =   -38.96331 eV ==== 
     psi = 0.565*[#   3]+0.253*[#   4]+0.166*[#   2]+0.009*[#   7]+0.004*[#   8]
          +0.003*[#   6]
    |psi|^2 = 1.000
==== e(   5) =    -8.89790 eV ==== 
     psi = 0.726*[#   9]+0.250*[#   5]+0.007*[#   6]+0.007*[#   7]+0.007*[#   8]
          +0.001*[#   1]
    |psi|^2 = 0.999
==== e(   6) =     1.25411 eV ==== 
     psi = 0.274*[#  10]+0.274*[#  11]+0.274*[#  12]+0.095*[#   5]+0.038*[#   9]
          +0.012*[#   6]+0.012*[#   7]+0.012*[#   8]
    |psi|^2 = 0.991
==== e(   7) =     1.83821 eV ==== 
     psi = 0.464*[#  10]+0.461*[#  12]+0.033*[#  11]+0.015*[#   6]+0.015*[#   8]
          +0.001*[#   7]
    |psi|^2 = 0.990
==== e(   8) =     1.83821 eV ==== 
     psi = 0.606*[#  11]+0.178*[#  12]+0.174*[#  10]+0.020*[#   7]+0.006*[#   8]
          +0.006*[#   6]
    |psi|^2 = 0.990
==== e(   9) =     5.18218 eV ==== 
     psi = 0.605*[#   5]+0.228*[#   9]+0.036*[#  10]+0.036*[#  11]+0.036*[#  12]
          +0.016*[#   6]+0.016*[#   7]+0.016*[#   8]
    |psi|^2 = 0.990
==== e(  10) =     9.13528 eV ==== 
     psi = 0.222*[#   6]+0.222*[#   7]+0.222*[#   8]+0.037*[#   5]+0.017*[#  10]
          +0.017*[#  11]+0.017*[#  12]+0.004*[#   2]+0.004*[#   3]+0.004*[#   4]
          
    |psi|^2 = 0.767
==== e(  11) =     9.52167 eV ==== 
     psi = 0.429*[#   6]+0.310*[#   8]+0.016*[#  10]+0.013*[#   7]+0.011*[#  12]
          +0.007*[#   2]+0.005*[#   4]
    |psi|^2 = 0.792
==== e(  12) =     9.52167 eV ==== 
     psi = 0.489*[#   7]+0.191*[#   8]+0.072*[#   6]+0.018*[#  11]+0.008*[#   3]
          +0.007*[#  12]+0.003*[#   4]+0.003*[#  10]+0.001*[#   2]
    |psi|^2 = 0.792
==== e(  13) =    11.85476 eV ==== 
     psi = 0.009*[#   6]+0.008*[#   8]
    |psi|^2 = 0.017
==== e(  14) =    11.85476 eV ==== 
     psi = 0.011*[#   7]+0.003*[#   8]+0.002*[#   6]
    |psi|^2 = 0.017
==== e(  15) =    14.09577 eV ==== 
     psi = 0.014*[#   6]+0.014*[#   7]+0.014*[#   8]+0.004*[#   5]
    |psi|^2 = 0.047
==== e(  16) =    15.15816 eV ==== 
     psi = 0.007*[#   6]+0.007*[#   7]+0.007*[#   8]+0.003*[#   9]
    |psi|^2 = 0.024
==== e(  17) =    15.86188 eV ==== 
     psi = 0.019*[#   6]+0.012*[#   8]+0.002*[#   7]+0.001*[#  10]
    |psi|^2 = 0.036
==== e(  18) =    15.86188 eV ==== 
     psi = 0.020*[#   7]+0.010*[#   8]+0.003*[#   6]+0.001*[#  11]
    |psi|^2 = 0.036
==== e(  19) =    18.92933 eV ==== 
     psi = 0.004*[#   6]+0.004*[#   7]+0.004*[#   8]+0.002*[#   9]
    |psi|^2 = 0.017
==== e(  20) =    22.23721 eV ==== 
     psi = 0.025*[#   6]+0.025*[#   7]+0.025*[#   8]+0.003*[#   5]+0.003*[#  10]
          +0.003*[#  11]+0.003*[#  12]
    |psi|^2 = 0.090
==== e(  21) =    22.62472 eV ==== 
     psi = 0.034*[#   6]+0.011*[#   8]+0.007*[#   7]+0.003*[#  10]+0.001*[#  12]
          
    |psi|^2 = 0.058
==== e(  22) =    22.62472 eV ==== 
     psi = 0.028*[#   7]+0.023*[#   8]+0.003*[#  11]+0.002*[#  12]
    |psi|^2 = 0.058
==== e(  23) =    25.06140 eV ==== 
     psi = 0.019*[#   6]+0.011*[#   8]
    |psi|^2 = 0.033
==== e(  24) =    25.06140 eV ==== 
     psi = 0.020*[#   7]+0.009*[#   8]+0.002*[#   6]
    |psi|^2 = 0.033
==== e(  25) =    26.09113 eV ==== 
     psi = 0.015*[#   7]+0.013*[#   6]+0.002*[#  11]+0.002*[#  10]
    |psi|^2 = 0.032
==== e(  26) =    26.09113 eV ==== 
     psi = 0.018*[#   8]+0.006*[#   6]+0.004*[#   7]+0.002*[#  12]
    |psi|^2 = 0.032
==== e(  27) =    26.67723 eV ==== 
     psi = 0.009*[#   6]+0.009*[#   7]+0.009*[#   8]+0.001*[#   5]
    |psi|^2 = 0.032
==== e(  28) =    30.82252 eV ==== 
 
    |psi|^2 = 0.000
==== e(  29) =    31.66393 eV ==== 
     psi = 0.001*[#   8]
    |psi|^2 = 0.003
==== e(  30) =    31.66393 eV ==== 
     psi = 0.001*[#   6]
    |psi|^2 = 0.003
==== e(  31) =    32.95307 eV ==== 
     psi = 0.002*[#   6]+0.002*[#   7]+0.002*[#   8]
    |psi|^2 = 0.008
==== e(  32) =    34.67191 eV ==== 
     psi = 0.001*[#   8]
    |psi|^2 = 0.003
==== e(  33) =    34.67191 eV ==== 
     psi = 0.001*[#   7]
    |psi|^2 = 0.003

 k =   0.0000000000  0.0000000000  0.1767766953
==== e(   1) =   -72.00812 eV ==== 
     psi = 0.998*[#   1]
    |psi|^2 = 1.000
==== e(   2) =   -38.96346 eV ==== 
     psi = 0.985*[#   2]+0.014*[#   6]
    |psi|^2 = 1.000
==== e(   3) =   -38.96335 eV ==== 
     psi = 0.974*[#   4]+0.015*[#   8]+0.010*[#   3]
    |psi|^2 = 1.000
==== e(   4) =   -38.96335 eV ==== 
     psi = 0.974*[#   3]+0.015*[#   7]+0.010*[#   4]
    |psi|^2 = 1.000
==== e(   5) =    -8.87578 eV ==== 
     psi = 0.730*[#   9]+0.239*[#   5]+0.027*[#   6]+0.001*[#   1]+0.001*[#  10]
          
    |psi|^2 = 0.999
==== e(   6) =     1.23811 eV ==== 
     psi = 0.816*[#  10]+0.121*[#   5]+0.048*[#   9]+0.006*[#   6]
    |psi|^2 = 0.991
==== e(   7) =     1.73169 eV ==== 
     psi = 0.580*[#  11]+0.356*[#  12]+0.037*[#   7]+0.018*[#   8]
    |psi|^2 = 0.991
==== e(   8) =     1.73169 eV ==== 
     psi = 0.580*[#  12]+0.356*[#  11]+0.037*[#   8]+0.018*[#   7]
    |psi|^2 = 0.991
==== e(   9) =     5.39611 eV ==== 
     psi = 0.566*[#   5]+0.214*[#   9]+0.144*[#  10]+0.064*[#   6]
    |psi|^2 = 0.988
==== e(  10) =     8.82338 eV ==== 
     psi = 0.678*[#   6]+0.056*[#   5]+0.025*[#  10]+0.011*[#   2]
    |psi|^2 = 0.770
==== e(  11) =     9.72620 eV ==== 
     psi = 0.704*[#   7]+0.028*[#   8]+0.026*[#  12]+0.020*[#  11]+0.012*[#   3]
          
    |psi|^2 = 0.791
==== e(  12) =     9.72620 eV ==== 
     psi = 0.704*[#   8]+0.028*[#   7]+0.026*[#  11]+0.020*[#  12]+0.012*[#   4]
          
    |psi|^2 = 0.791
==== e(  13) =    10.94653 eV ==== 
     psi = 0.022*[#   6]+0.006*[#   5]
    |psi|^2 = 0.029
==== e(  14) =    12.53343 eV ==== 
 
    |psi|^2 = 0.000
==== e(  15) =    15.21290 eV ==== 
     psi = 0.041*[#   6]+0.002*[#   9]+0.001*[#   5]
    |psi|^2 = 0.045
==== e(  16) =    15.29405 eV ==== 
     psi = 0.035*[#   8]+0.007*[#   7]+0.001*[#  12]
    |psi|^2 = 0.044
==== e(  17) =    15.29405 eV ==== 
     psi = 0.035*[#   7]+0.007*[#   8]+0.001*[#  11]
    |psi|^2 = 0.044
==== e(  18) =    15.53113 eV ==== 
     psi = 0.002*[#   9]+0.002*[#   5]
    |psi|^2 = 0.004
==== e(  19) =    19.49414 eV ==== 
     psi = 0.013*[#   6]+0.001*[#   9]+0.001*[#  10]
    |psi|^2 = 0.016
==== e(  20) =    22.01784 eV ==== 
     psi = 0.059*[#   7]+0.018*[#   8]+0.004*[#  12]+0.004*[#  11]+0.001*[#   3]
          
    |psi|^2 = 0.087
==== e(  21) =    22.01784 eV ==== 
     psi = 0.059*[#   8]+0.018*[#   7]+0.004*[#  11]+0.004*[#  12]+0.001*[#   4]
          
    |psi|^2 = 0.087
==== e(  22) =    22.97181 eV ==== 
     psi = 0.056*[#   6]+0.008*[#  10]+0.003*[#   5]
    |psi|^2 = 0.069
==== e(  23) =    24.07999 eV ==== 
 
    |psi|^2 = 0.000
==== e(  24) =    24.56422 eV ==== 
     psi = 0.038*[#   6]+0.003*[#   5]
    |psi|^2 = 0.041
==== e(  25) =    26.47550 eV ==== 
     psi = 0.019*[#   8]+0.018*[#   7]+0.002*[#  11]+0.002*[#  12]
    |psi|^2 = 0.042
==== e(  26) =    26.47550 eV ==== 
     psi = 0.019*[#   7]+0.018*[#   8]+0.002*[#  12]+0.002*[#  11]
    |psi|^2 = 0.042
==== e(  27) =    26.95652 eV ==== 
     psi = 0.006*[#   6]+0.001*[#  10]
    |psi|^2 = 0.008
==== e(  28) =    31.53815 eV ==== 
     psi = 0.004*[#   7]+0.003*[#   8]
    |psi|^2 = 0.007
==== e(  29) =    31.53815 eV ==== 
     psi = 0.004*[#   8]+0.003*[#   7]
    |psi|^2 = 0.007
==== e(  30) =    31.91910 eV ==== 
 
    |psi|^2 = 0.000
==== e(  31) =    33.40404 eV ==== 
 
    |psi|^2 = 0.002
==== e(  32) =    33.81671 eV ==== 
     psi = 0.003*[#   8]+0.002*[#   7]
    |psi|^2 = 0.005
==== e(  33) =    33.81671 eV ==== 
     psi = 0.003*[#   7]+0.002*[#   8]
    |psi|^2 = 0.005

 k =  -0.0883883476  0.0883883476  0.2651650429
==== e(   1) =   -72.00811 eV ==== 
     psi = 0.997*[#   1]+0.001*[#  10]
    |psi|^2 = 1.000
==== e(   2) =   -38.96374 eV ==== 
     psi = 0.676*[#   2]+0.155*[#   3]+0.155*[#   4]+0.007*[#   6]+0.002*[#   7]
          +0.002*[#   8]
    |psi|^2 = 1.000
==== e(   3) =   -38.96342 eV ==== 
     psi = 0.492*[#   3]+0.492*[#   4]+0.008*[#   7]+0.008*[#   8]
    |psi|^2 = 1.000
==== e(   4) =   -38.96340 eV ==== 
     psi = 0.337*[#   3]+0.337*[#   4]+0.310*[#   2]+0.005*[#   7]+0.005*[#   8]
          +0.005*[#   6]
    |psi|^2 = 1.000
==== e(   5) =    -8.73999 eV ==== 
     psi = 0.756*[#   9]+0.177*[#   5]+0.051*[#   6]+0.006*[#   7]+0.006*[#   8]
          +0.002*[#  10]
    |psi|^2 = 0.999
==== e(   6) =     0.47660 eV ==== 
     psi = 0.522*[#  10]+0.163*[#   5]+0.106*[#  11]+0.106*[#  12]+0.051*[#   9]
          +0.021*[#   7]+0.021*[#   8]+0.003*[#   6]+0.001*[#   1]
    |psi|^2 = 0.994
==== e(   7) =     1.58929 eV ==== 
     psi = 0.454*[#  11]+0.454*[#  12]+0.042*[#   7]+0.042*[#   8]
    |psi|^2 = 0.992
==== e(   8) =     1.61581 eV ==== 
     psi = 0.325*[#  11]+0.325*[#  12]+0.263*[#  10]+0.023*[#   7]+0.023*[#   8]
          +0.021*[#   6]+0.011*[#   5]+0.002*[#   9]
    |psi|^2 = 0.992
==== e(   9) =     6.20449 eV ==== 
     psi = 0.472*[#   5]+0.175*[#   9]+0.144*[#  10]+0.129*[#   6]+0.015*[#   7]
          +0.015*[#   8]+0.009*[#  11]+0.009*[#  12]
    |psi|^2 = 0.969
==== e(  10) =     8.50495 eV ==== 
     psi = 0.530*[#   6]+0.133*[#   5]+0.029*[#  10]+0.020*[#  11]+0.020*[#  12]
          +0.011*[#   7]+0.011*[#   8]+0.009*[#   2]+0.001*[#   9]
    |psi|^2 = 0.766
==== e(  11) =     9.60453 eV ==== 
     psi = 0.203*[#   7]+0.203*[#   8]+0.046*[#   6]+0.015*[#  11]+0.015*[#  12]
          +0.010*[#  10]+0.004*[#   3]+0.004*[#   4]+0.002*[#   9]
    |psi|^2 = 0.503
==== e(  12) =    10.00302 eV ==== 
     psi = 0.333*[#   7]+0.333*[#   8]+0.032*[#  11]+0.032*[#  12]+0.006*[#   3]
          +0.006*[#   4]
    |psi|^2 = 0.742
==== e(  13) =    10.84844 eV ==== 
     psi = 0.114*[#   7]+0.114*[#   8]+0.020*[#   6]+0.020*[#   5]+0.013*[#  10]
          +0.011*[#  11]+0.011*[#  12]+0.002*[#   3]+0.002*[#   4]
    |psi|^2 = 0.308
==== e(  14) =    12.65224 eV ==== 
     psi = 0.018*[#   7]+0.018*[#   8]+0.002*[#  11]+0.002*[#  12]
    |psi|^2 = 0.040
==== e(  15) =    14.41398 eV ==== 
     psi = 0.008*[#   6]+0.006*[#   7]+0.006*[#   8]+0.003*[#   5]+0.002*[#   9]
          
    |psi|^2 = 0.026
==== e(  16) =    16.46389 eV ==== 
     psi = 0.013*[#   7]+0.013*[#   8]+0.002*[#  11]+0.002*[#  12]
    |psi|^2 = 0.031
==== e(  17) =    16.54991 eV ==== 
     psi = 0.040*[#   6]+0.007*[#   7]+0.007*[#   8]+0.005*[#   9]+0.002*[#   5]
          +0.001*[#  11]+0.001*[#  12]
    |psi|^2 = 0.065
==== e(  18) =    17.49671 eV ==== 
     psi = 0.004*[#   7]+0.004*[#   8]+0.002*[#   6]
    |psi|^2 = 0.013
==== e(  19) =    19.75271 eV ==== 
     psi = 0.030*[#   7]+0.030*[#   8]+0.009*[#   6]+0.006*[#   5]+0.006*[#  10]
          +0.004*[#  11]+0.004*[#  12]
    |psi|^2 = 0.092
==== e(  20) =    19.99170 eV ==== 
     psi = 0.041*[#   7]+0.041*[#   8]+0.005*[#  11]+0.005*[#  12]
    |psi|^2 = 0.093
==== e(  21) =    21.42931 eV ==== 
     psi = 0.035*[#   6]+0.004*[#   7]+0.004*[#   8]+0.002*[#   5]+0.002*[#   9]
          +0.001*[#  11]+0.001*[#  12]+0.001*[#  10]
    |psi|^2 = 0.052
==== e(  22) =    22.27259 eV ==== 
     psi = 0.030*[#   6]+0.016*[#   7]+0.016*[#   8]+0.003*[#  10]+0.002*[#  11]
          +0.002*[#  12]+0.002*[#   5]
    |psi|^2 = 0.074
==== e(  23) =    23.62501 eV ==== 
     psi = 0.008*[#   7]+0.008*[#   8]
    |psi|^2 = 0.018
==== e(  24) =    23.87358 eV ==== 
     psi = 0.023*[#   6]+0.003*[#   5]+0.001*[#   7]+0.001*[#   8]
    |psi|^2 = 0.030
==== e(  25) =    26.79680 eV ==== 
     psi = 0.005*[#   6]
    |psi|^2 = 0.009
==== e(  26) =    26.86147 eV ==== 
     psi = 0.014*[#   7]+0.014*[#   8]+0.002*[#  11]+0.002*[#  12]
    |psi|^2 = 0.032
==== e(  27) =    28.31720 eV ==== 
     psi = 0.008*[#   7]+0.008*[#   8]+0.001*[#  11]+0.001*[#  12]
    |psi|^2 = 0.019
==== e(  28) =    30.21465 eV ==== 
     psi = 0.005*[#   7]+0.005*[#   8]
    |psi|^2 = 0.013
==== e(  29) =    31.49882 eV ==== 
     psi = 0.007*[#   7]+0.007*[#   8]
    |psi|^2 = 0.015
==== e(  30) =    31.81022 eV ==== 
     psi = 0.002*[#   6]
    |psi|^2 = 0.005
==== e(  31) =    31.93397 eV ==== 
 
    |psi|^2 = 0.000
==== e(  32) =    33.28655 eV ==== 
     psi = 0.001*[#   6]+0.001*[#   7]+0.001*[#   8]
    |psi|^2 = 0.004
==== e(  33) =    33.98659 eV ==== 
 
    |psi|^2 = 0.002

 k =  -0.1767766953  0.1767766953  0.3535533906
==== e(   1) =   -72.00809 eV ==== 
     psi = 0.996*[#   1]+0.002*[#  10]
    |psi|^2 = 1.000
==== e(   2) =   -38.96413 eV ==== 
     psi = 0.509*[#   2]+0.240*[#   3]+0.240*[#   4]+0.004*[#   6]+0.002*[#   7]
          +0.002*[#   8]
    |psi|^2 = 1.000
==== e(   3) =   -38.96349 eV ==== 
     psi = 0.478*[#   2]+0.253*[#   3]+0.253*[#   4]+0.007*[#   6]+0.004*[#   7]
          +0.004*[#   8]
    |psi|^2 = 1.000
==== e(   4) =   -38.96348 eV ==== 
     psi = 0.492*[#   3]+0.492*[#   4]+0.007*[#   7]+0.007*[#   8]
    |psi|^2 = 1.000
==== e(   5) =    -8.55766 eV ==== 
     psi = 0.794*[#   9]+0.103*[#   5]+0.062*[#   6]+0.019*[#   7]+0.019*[#   8]
          +0.001*[#  10]
    |psi|^2 = 0.999
==== e(   6) =    -0.29808 eV ==== 
     psi = 0.350*[#  10]+0.184*[#   5]+0.164*[#  11]+0.164*[#  12]+0.043*[#   7]
          +0.043*[#   8]+0.027*[#   9]+0.021*[#   6]+0.001*[#   1]
    |psi|^2 = 0.997
==== e(   7) =     1.43583 eV ==== 
     psi = 0.433*[#  10]+0.225*[#  11]+0.225*[#  12]+0.043*[#   6]+0.024*[#   5]
          +0.019*[#   7]+0.019*[#   8]+0.004*[#   9]
    |psi|^2 = 0.993
==== e(   8) =     1.49554 eV ==== 
     psi = 0.446*[#  11]+0.446*[#  12]+0.051*[#   7]+0.051*[#   8]
    |psi|^2 = 0.994
==== e(   9) =     6.72196 eV ==== 
     psi = 0.406*[#   5]+0.191*[#   6]+0.138*[#   9]+0.091*[#  10]+0.035*[#   7]
          +0.035*[#   8]+0.003*[#  11]+0.003*[#  12]+0.002*[#   2]
    |psi|^2 = 0.905
==== e(  10) =     8.54583 eV ==== 
     psi = 0.330*[#   6]+0.143*[#   5]+0.064*[#  11]+0.064*[#  12]+0.051*[#   7]
          +0.051*[#   8]+0.008*[#  10]+0.005*[#   2]+0.001*[#   9]+0.001*[#   3]
          +0.001*[#   4]
    |psi|^2 = 0.720
==== e(  11) =     9.33889 eV ==== 
     psi = 0.122*[#   7]+0.122*[#   8]+0.102*[#   6]+0.073*[#   5]+0.060*[#  10]
          +0.012*[#   9]+0.011*[#  11]+0.011*[#  12]+0.002*[#   2]+0.002*[#   3]
          +0.002*[#   4]
    |psi|^2 = 0.520
==== e(  12) =     9.84646 eV ==== 
     psi = 0.279*[#   7]+0.279*[#   8]+0.031*[#  11]+0.031*[#  12]+0.005*[#   3]
          +0.005*[#   4]
    |psi|^2 = 0.629
==== e(  13) =    11.91153 eV ==== 
     psi = 0.110*[#   7]+0.110*[#   8]+0.039*[#   6]+0.032*[#  10]+0.026*[#   5]
          +0.010*[#  11]+0.010*[#  12]+0.002*[#   3]+0.002*[#   4]
    |psi|^2 = 0.342
==== e(  14) =    13.51262 eV ==== 
     psi = 0.048*[#   7]+0.048*[#   8]+0.007*[#  11]+0.007*[#  12]
    |psi|^2 = 0.112
==== e(  15) =    13.96052 eV ==== 
     psi = 0.022*[#   6]+0.006*[#   5]+0.005*[#   9]+0.002*[#  11]+0.002*[#  12]
          +0.001*[#  10]
    |psi|^2 = 0.040
==== e(  16) =    16.78209 eV ==== 
     psi = 0.054*[#   6]+0.036*[#   7]+0.036*[#   8]+0.012*[#   5]+0.012*[#   9]
          +0.007*[#  11]+0.007*[#  12]+0.006*[#  10]
    |psi|^2 = 0.173
==== e(  17) =    16.78361 eV ==== 
     psi = 0.056*[#   7]+0.056*[#   8]+0.010*[#  11]+0.010*[#  12]+0.001*[#   3]
          +0.001*[#   4]
    |psi|^2 = 0.134
==== e(  18) =    19.11605 eV ==== 
     psi = 0.004*[#   5]+0.002*[#   7]+0.002*[#   8]+0.002*[#   6]+0.001*[#  10]
          +0.001*[#  11]+0.001*[#  12]+0.001*[#   9]
    |psi|^2 = 0.015
==== e(  19) =    19.26155 eV ==== 
     psi = 0.009*[#   7]+0.009*[#   8]
    |psi|^2 = 0.019
==== e(  20) =    19.41472 eV ==== 
     psi = 0.018*[#   6]+0.012*[#   7]+0.012*[#   8]+0.006*[#  10]+0.004*[#  11]
          +0.004*[#  12]+0.002*[#   5]
    |psi|^2 = 0.058
==== e(  21) =    20.72324 eV ==== 
     psi = 0.041*[#   6]+0.012*[#   7]+0.012*[#   8]+0.007*[#   5]+0.004*[#  11]
          +0.004*[#  12]
    |psi|^2 = 0.081
==== e(  22) =    23.44153 eV ==== 
     psi = 0.019*[#   6]+0.005*[#   7]+0.005*[#   8]+0.003*[#  10]+0.001*[#   5]
          
    |psi|^2 = 0.034
==== e(  23) =    23.88813 eV ==== 
     psi = 0.013*[#   7]+0.013*[#   8]+0.002*[#  11]+0.002*[#  12]
    |psi|^2 = 0.030
==== e(  24) =    24.36531 eV ==== 
     psi = 0.004*[#   6]
    |psi|^2 = 0.008
==== e(  25) =    26.49917 eV ==== 
     psi = 0.007*[#   6]+0.001*[#   7]+0.001*[#   8]
    |psi|^2 = 0.012
==== e(  26) =    26.79180 eV ==== 
     psi = 0.009*[#   7]+0.009*[#   8]+0.002*[#  11]+0.002*[#  12]
    |psi|^2 = 0.024
==== e(  27) =    27.13866 eV ==== 
     psi = 0.008*[#   7]+0.008*[#   8]+0.001*[#  10]+0.001*[#   5]
    |psi|^2 = 0.023
==== e(  28) =    29.49815 eV ==== 
     psi = 0.002*[#   7]+0.002*[#   8]
    |psi|^2 = 0.007
==== e(  29) =    30.08288 eV ==== 
 
    |psi|^2 = 0.003
==== e(  30) =    30.44612 eV ==== 
     psi = 0.005*[#   7]+0.005*[#   8]
    |psi|^2 = 0.011
==== e(  31) =    31.05193 eV ==== 
     psi = 0.004*[#   7]+0.004*[#   8]
    |psi|^2 = 0.010
==== e(  32) =    32.32079 eV ==== 
     psi = 0.008*[#   6]+0.001*[#   7]+0.001*[#   8]
    |psi|^2 = 0.013
==== e(  33) =    33.34650 eV ==== 
 
    |psi|^2 = 0.001

 k =   0.4419417382 -0.4419417382 -0.2651650429
==== e(   1) =   -72.00809 eV ==== 
     psi = 0.996*[#   1]+0.002*[#  10]
    |psi|^2 = 1.000
==== e(   2) =   -38.96438 eV ==== 
     psi = 0.389*[#   2]+0.301*[#   3]+0.301*[#   4]+0.003*[#   6]+0.002*[#   7]
          +0.002*[#   8]
    |psi|^2 = 1.000
==== e(   3) =   -38.96357 eV ==== 
     psi = 0.598*[#   2]+0.193*[#   3]+0.193*[#   4]+0.009*[#   6]+0.003*[#   7]
          +0.003*[#   8]
    |psi|^2 = 1.000
==== e(   4) =   -38.96350 eV ==== 
     psi = 0.492*[#   3]+0.492*[#   4]+0.008*[#   7]+0.008*[#   8]
    |psi|^2 = 1.000
==== e(   5) =    -8.43766 eV ==== 
     psi = 0.821*[#   9]+0.059*[#   5]+0.055*[#   6]+0.032*[#   7]+0.032*[#   8]
          
    |psi|^2 = 0.999
==== e(   6) =    -0.71360 eV ==== 
     psi = 0.254*[#  10]+0.199*[#  11]+0.199*[#  12]+0.196*[#   5]+0.051*[#   7]
          +0.051*[#   8]+0.044*[#   6]+0.002*[#   9]+0.001*[#   1]
    |psi|^2 = 0.999
==== e(   7) =     1.26546 eV ==== 
     psi = 0.533*[#  10]+0.163*[#  11]+0.163*[#  12]+0.048*[#   6]+0.033*[#   5]
          +0.024*[#   7]+0.024*[#   8]+0.006*[#   9]
    |psi|^2 = 0.993
==== e(   8) =     1.49641 eV ==== 
     psi = 0.446*[#  11]+0.446*[#  12]+0.051*[#   7]+0.051*[#   8]
    |psi|^2 = 0.994
==== e(   9) =     6.83847 eV ==== 
     psi = 0.410*[#   5]+0.168*[#   6]+0.120*[#   9]+0.055*[#  10]+0.050*[#   7]
          +0.050*[#   8]+0.005*[#  11]+0.005*[#  12]+0.002*[#   2]
    |psi|^2 = 0.867
==== e(  10) =     8.39628 eV ==== 
     psi = 0.258*[#   6]+0.093*[#   7]+0.093*[#   8]+0.055*[#  11]+0.055*[#  12]
          +0.048*[#   5]+0.006*[#  10]+0.004*[#   2]+0.002*[#   3]+0.002*[#   4]
          
    |psi|^2 = 0.617
==== e(  11) =     9.57334 eV ==== 
     psi = 0.259*[#   7]+0.259*[#   8]+0.026*[#  11]+0.026*[#  12]+0.005*[#   3]
          +0.005*[#   4]
    |psi|^2 = 0.580
==== e(  12) =     9.92306 eV ==== 
     psi = 0.200*[#   5]+0.126*[#   6]+0.090*[#  10]+0.081*[#   7]+0.081*[#   8]
          +0.042*[#  11]+0.042*[#  12]+0.009*[#   9]+0.002*[#   2]+0.001*[#   1]
          +0.001*[#   3]+0.001*[#   4]
    |psi|^2 = 0.677
==== e(  13) =    12.96452 eV ==== 
     psi = 0.065*[#   7]+0.065*[#   8]+0.059*[#   6]+0.020*[#  10]+0.010*[#   9]
          +0.003*[#   5]+0.001*[#   2]+0.001*[#   3]+0.001*[#   4]
    |psi|^2 = 0.227
==== e(  14) =    14.35767 eV ==== 
     psi = 0.032*[#   7]+0.032*[#   8]+0.007*[#  11]+0.007*[#  12]
    |psi|^2 = 0.080
==== e(  15) =    14.45809 eV ==== 
     psi = 0.027*[#   5]+0.025*[#   7]+0.025*[#   8]+0.018*[#  10]+0.014*[#   6]
          +0.007*[#  11]+0.007*[#  12]
    |psi|^2 = 0.125
==== e(  16) =    15.21452 eV ==== 
     psi = 0.085*[#   6]+0.020*[#   9]+0.016*[#   7]+0.016*[#   8]+0.010*[#  11]
          +0.010*[#  12]+0.001*[#   2]
    |psi|^2 = 0.160
==== e(  17) =    15.51940 eV ==== 
     psi = 0.098*[#   7]+0.098*[#   8]+0.013*[#  11]+0.013*[#  12]+0.002*[#   3]
          +0.002*[#   4]
    |psi|^2 = 0.226
==== e(  18) =    17.63224 eV ==== 
     psi = 0.046*[#   6]+0.022*[#   7]+0.022*[#   8]+0.011*[#   5]+0.007*[#  10]
          +0.007*[#  11]+0.007*[#  12]+0.003*[#   9]
    |psi|^2 = 0.125
==== e(  19) =    21.25336 eV ==== 
     psi = 0.004*[#   7]+0.004*[#   8]
    |psi|^2 = 0.009
==== e(  20) =    21.37756 eV ==== 
     psi = 0.007*[#   7]+0.007*[#   8]+0.005*[#   6]+0.004*[#   5]+0.004*[#  11]
          +0.004*[#  12]+0.003*[#  10]+0.001*[#   9]
    |psi|^2 = 0.034
==== e(  21) =    21.95915 eV ==== 
     psi = 0.024*[#   6]+0.003*[#   5]+0.002*[#  11]+0.002*[#  12]+0.002*[#   9]
          +0.001*[#  10]
    |psi|^2 = 0.034
==== e(  22) =    23.21481 eV ==== 
     psi = 0.003*[#   5]+0.003*[#  10]+0.003*[#   7]+0.003*[#   8]+0.002*[#   6]
          
    |psi|^2 = 0.015
==== e(  23) =    24.34202 eV ==== 
     psi = 0.012*[#   7]+0.012*[#   8]+0.002*[#  11]+0.002*[#  12]
    |psi|^2 = 0.029
==== e(  24) =    24.83116 eV ==== 
     psi = 0.006*[#   6]+0.005*[#   7]+0.005*[#   8]+0.001*[#  11]+0.001*[#  12]
          
    |psi|^2 = 0.019
==== e(  25) =    25.56505 eV ==== 
     psi = 0.012*[#   6]+0.005*[#   7]+0.005*[#   8]+0.001*[#  10]
    |psi|^2 = 0.025
==== e(  26) =    25.75367 eV ==== 
     psi = 0.006*[#   7]+0.006*[#   8]+0.001*[#  11]+0.001*[#  12]
    |psi|^2 = 0.015
==== e(  27) =    26.84396 eV ==== 
     psi = 0.002*[#   7]+0.002*[#   8]+0.001*[#  10]
    |psi|^2 = 0.005
==== e(  28) =    28.89280 eV ==== 
 
    |psi|^2 = 0.003
==== e(  29) =    29.06779 eV ==== 
     psi = 0.004*[#   7]+0.004*[#   8]
    |psi|^2 = 0.009
==== e(  30) =    29.90967 eV ==== 
     psi = 0.001*[#   6]
    |psi|^2 = 0.003
==== e(  31) =    30.59748 eV ==== 
     psi = 0.008*[#   7]+0.008*[#   8]
    |psi|^2 = 0.018
==== e(  32) =    30.90805 eV ==== 
     psi = 0.012*[#   6]+0.002*[#   7]+0.002*[#   8]+0.001*[#  10]
    |psi|^2 = 0.019
==== e(  33) =    32.51912 eV ==== 
 
    |psi|^2 = 0.003

 k =   0.3535533906 -0.3535533906 -0.1767766953
==== e(   1) =   -72.00809 eV ==== 
     psi = 0.996*[#   1]+0.001*[#  10]+0.001*[#  11]+0.001*[#  12]
    |psi|^2 = 1.000
==== e(   2) =   -38.96432 eV ==== 
     psi = 0.358*[#   3]+0.358*[#   4]+0.274*[#   2]+0.003*[#   7]+0.003*[#   8]
          +0.002*[#   6]
    |psi|^2 = 1.000
==== e(   3) =   -38.96358 eV ==== 
     psi = 0.712*[#   2]+0.136*[#   3]+0.136*[#   4]+0.010*[#   6]+0.002*[#   7]
          +0.002*[#   8]
    |psi|^2 = 1.000
==== e(   4) =   -38.96347 eV ==== 
     psi = 0.492*[#   3]+0.492*[#   4]+0.008*[#   7]+0.008*[#   8]
    |psi|^2 = 1.000
==== e(   5) =    -8.46502 eV ==== 
     psi = 0.815*[#   9]+0.069*[#   5]+0.039*[#   7]+0.039*[#   8]+0.035*[#   6]
          
    |psi|^2 = 0.999
==== e(   6) =    -0.62081 eV ==== 
     psi = 0.239*[#  11]+0.239*[#  12]+0.192*[#   5]+0.178*[#  10]+0.061*[#   6]
          +0.040*[#   7]+0.040*[#   8]+0.008*[#   9]+0.001*[#   1]
    |psi|^2 = 0.998
==== e(   7) =     1.20126 eV ==== 
     psi = 0.624*[#  10]+0.113*[#  11]+0.113*[#  12]+0.040*[#   6]+0.033*[#   7]
          +0.033*[#   8]+0.032*[#   5]+0.005*[#   9]
    |psi|^2 = 0.993
==== e(   8) =     1.58962 eV ==== 
     psi = 0.454*[#  11]+0.454*[#  12]+0.042*[#   7]+0.042*[#   8]
    |psi|^2 = 0.993
==== e(   9) =     6.88372 eV ==== 
     psi = 0.434*[#   5]+0.125*[#   9]+0.110*[#   6]+0.071*[#   7]+0.071*[#   8]
          +0.028*[#  10]+0.022*[#  11]+0.022*[#  12]
    |psi|^2 = 0.885
==== e(  10) =     8.49496 eV ==== 
     psi = 0.276*[#   6]+0.096*[#   7]+0.096*[#   8]+0.046*[#  11]+0.046*[#  12]
          +0.029*[#  10]+0.025*[#   5]+0.005*[#   2]+0.001*[#   3]+0.001*[#   4]
          
    |psi|^2 = 0.623
==== e(  11) =     9.52273 eV ==== 
     psi = 0.260*[#   7]+0.260*[#   8]+0.021*[#  11]+0.021*[#  12]+0.005*[#   3]
          +0.005*[#   4]
    |psi|^2 = 0.572
==== e(  12) =     9.78510 eV ==== 
     psi = 0.196*[#   5]+0.130*[#   6]+0.088*[#   7]+0.088*[#   8]+0.087*[#  10]
          +0.044*[#  11]+0.044*[#  12]+0.009*[#   9]+0.002*[#   2]+0.002*[#   3]
          +0.002*[#   4]+0.001*[#   1]
    |psi|^2 = 0.694
==== e(  13) =    12.62498 eV ==== 
     psi = 0.082*[#   7]+0.082*[#   8]+0.010*[#  11]+0.010*[#  12]+0.002*[#   3]
          +0.002*[#   4]
    |psi|^2 = 0.187
==== e(  14) =    13.79674 eV ==== 
     psi = 0.057*[#   6]+0.026*[#   7]+0.026*[#   8]+0.012*[#   9]+0.005*[#   5]
          +0.003*[#  10]
    |psi|^2 = 0.131
==== e(  15) =    14.60123 eV ==== 
     psi = 0.043*[#   6]+0.033*[#   7]+0.033*[#   8]+0.014*[#  10]+0.011*[#   9]
          +0.005*[#   5]+0.003*[#  11]+0.003*[#  12]
    |psi|^2 = 0.148
==== e(  16) =    14.86638 eV ==== 
     psi = 0.113*[#   6]+0.018*[#  11]+0.018*[#  12]+0.014*[#   5]+0.004*[#   7]
          +0.004*[#   8]+0.003*[#  10]+0.002*[#   2]
    |psi|^2 = 0.176
==== e(  17) =    17.30147 eV ==== 
     psi = 0.034*[#   6]+0.030*[#   7]+0.030*[#   8]+0.016*[#  10]+0.015*[#   5]
          +0.006*[#   9]+0.004*[#  11]+0.004*[#  12]
    |psi|^2 = 0.141
==== e(  18) =    17.47438 eV ==== 
     psi = 0.053*[#   7]+0.053*[#   8]+0.008*[#  11]+0.008*[#  12]+0.001*[#   3]
          +0.001*[#   4]
    |psi|^2 = 0.123
==== e(  19) =    19.73359 eV ==== 
     psi = 0.004*[#   6]+0.002*[#   7]+0.002*[#   8]+0.002*[#  10]+0.001*[#   5]
          +0.001*[#   9]
    |psi|^2 = 0.015
==== e(  20) =    21.47929 eV ==== 
     psi = 0.009*[#   7]+0.009*[#   8]+0.006*[#   5]+0.004*[#   6]+0.004*[#  10]
          +0.003*[#  11]+0.003*[#  12]+0.001*[#   9]
    |psi|^2 = 0.038
==== e(  21) =    21.92698 eV ==== 
     psi = 0.009*[#   7]+0.009*[#   8]+0.001*[#  11]+0.001*[#  12]
    |psi|^2 = 0.022
==== e(  22) =    23.70748 eV ==== 
     psi = 0.008*[#   7]+0.008*[#   8]+0.001*[#  11]+0.001*[#  12]
    |psi|^2 = 0.019
==== e(  23) =    24.01053 eV ==== 
     psi = 0.025*[#   6]+0.004*[#   7]+0.004*[#   8]+0.003*[#  11]+0.003*[#  12]
          +0.002*[#  10]
    |psi|^2 = 0.043
==== e(  24) =    24.86589 eV ==== 
     psi = 0.006*[#   6]+0.004*[#   7]+0.004*[#   8]+0.003*[#   5]+0.001*[#   9]
          
    |psi|^2 = 0.020
==== e(  25) =    25.82557 eV ==== 
     psi = 0.002*[#   7]+0.002*[#   8]+0.001*[#   6]
    |psi|^2 = 0.006
==== e(  26) =    26.11588 eV ==== 
     psi = 0.008*[#   7]+0.008*[#   8]
    |psi|^2 = 0.018
==== e(  27) =    26.76694 eV ==== 
     psi = 0.007*[#   6]
    |psi|^2 = 0.009
==== e(  28) =    28.54513 eV ==== 
     psi = 0.004*[#   7]+0.004*[#   8]+0.001*[#  11]+0.001*[#  12]
    |psi|^2 = 0.010
==== e(  29) =    28.84228 eV ==== 
     psi = 0.004*[#   6]
    |psi|^2 = 0.005
==== e(  30) =    30.52865 eV ==== 
     psi = 0.008*[#   6]+0.003*[#   7]+0.003*[#   8]+0.002*[#  10]
    |psi|^2 = 0.018
==== e(  31) =    31.03184 eV ==== 
     psi = 0.003*[#   6]
    |psi|^2 = 0.005
==== e(  32) =    31.12796 eV ==== 
     psi = 0.005*[#   7]+0.005*[#   8]
    |psi|^2 = 0.012
==== e(  33) =    33.03265 eV ==== 
     psi = 0.003*[#   7]+0.003*[#   8]
    |psi|^2 = 0.007

 k =   0.2651650429 -0.2651650429 -0.0883883476
==== e(   1) =   -72.00810 eV ==== 
     psi = 0.997*[#   1]
    |psi|^2 = 1.000
==== e(   2) =   -38.96400 eV ==== 
     psi = 0.425*[#   3]+0.425*[#   4]+0.138*[#   2]+0.004*[#   7]+0.004*[#   8]
          +0.001*[#   6]
    |psi|^2 = 1.000
==== e(   3) =   -38.96353 eV ==== 
     psi = 0.847*[#   2]+0.069*[#   3]+0.069*[#   4]+0.012*[#   6]
    |psi|^2 = 1.000
==== e(   4) =   -38.96339 eV ==== 
     psi = 0.492*[#   3]+0.492*[#   4]+0.008*[#   7]+0.008*[#   8]
    |psi|^2 = 1.000
==== e(   5) =    -8.61930 eV ==== 
     psi = 0.781*[#   9]+0.128*[#   5]+0.037*[#   7]+0.037*[#   8]+0.015*[#   6]
          
    |psi|^2 = 0.999
==== e(   6) =    -0.06585 eV ==== 
     psi = 0.299*[#  11]+0.299*[#  12]+0.175*[#   5]+0.090*[#  10]+0.063*[#   6]
          +0.036*[#   9]+0.016*[#   7]+0.016*[#   8]+0.001*[#   1]
    |psi|^2 = 0.996
==== e(   7) =     1.29305 eV ==== 
     psi = 0.752*[#  10]+0.055*[#  11]+0.055*[#  12]+0.041*[#   7]+0.041*[#   8]
          +0.024*[#   6]+0.022*[#   5]+0.002*[#   9]
    |psi|^2 = 0.993
==== e(   8) =     1.72898 eV ==== 
     psi = 0.467*[#  11]+0.467*[#  12]+0.029*[#   7]+0.029*[#   8]
    |psi|^2 = 0.992
==== e(   9) =     6.69210 eV ==== 
     psi = 0.472*[#   5]+0.153*[#   9]+0.066*[#   7]+0.066*[#   8]+0.066*[#   6]
          +0.059*[#  11]+0.059*[#  12]+0.006*[#  10]
    |psi|^2 = 0.948
==== e(  10) =     8.75237 eV ==== 
     psi = 0.198*[#   7]+0.198*[#   8]+0.098*[#   5]+0.098*[#  10]+0.090*[#   6]
          +0.020*[#  11]+0.020*[#  12]+0.004*[#   9]+0.003*[#   3]+0.003*[#   4]
          +0.002*[#   2]
    |psi|^2 = 0.735
==== e(  11) =     9.30104 eV ==== 
     psi = 0.373*[#   6]+0.055*[#   5]+0.036*[#  11]+0.036*[#  12]+0.028*[#   7]
          +0.028*[#   8]+0.014*[#  10]+0.006*[#   2]+0.004*[#   9]
    |psi|^2 = 0.582
==== e(  12) =     9.72334 eV ==== 
     psi = 0.305*[#   7]+0.305*[#   8]+0.018*[#  11]+0.018*[#  12]+0.005*[#   3]
          +0.005*[#   4]
    |psi|^2 = 0.656
==== e(  13) =    11.26834 eV ==== 
     psi = 0.065*[#   7]+0.065*[#   8]+0.005*[#  11]+0.005*[#  12]+0.001*[#   3]
          +0.001*[#   4]
    |psi|^2 = 0.143
==== e(  14) =    13.18340 eV ==== 
     psi = 0.158*[#   6]+0.016*[#   5]+0.013*[#  11]+0.013*[#  12]+0.003*[#   2]
          +0.003*[#   7]+0.003*[#   8]+0.002*[#  10]
    |psi|^2 = 0.210
==== e(  15) =    14.15223 eV ==== 
     psi = 0.008*[#   7]+0.008*[#   8]+0.004*[#   9]+0.002*[#   6]+0.002*[#  10]
          +0.002*[#   5]
    |psi|^2 = 0.029
==== e(  16) =    16.25380 eV ==== 
     psi = 0.049*[#   6]+0.035*[#   7]+0.035*[#   8]+0.011*[#  10]+0.008*[#   9]
          +0.007*[#   5]+0.002*[#  11]+0.002*[#  12]
    |psi|^2 = 0.151
==== e(  17) =    17.67573 eV ==== 
     psi = 0.020*[#   6]+0.004*[#  11]+0.004*[#  12]+0.004*[#   7]+0.004*[#   8]
          +0.003*[#   5]
    |psi|^2 = 0.043
==== e(  18) =    18.36066 eV ==== 
     psi = 0.009*[#   6]+0.003*[#   7]+0.003*[#   8]+0.002*[#   9]+0.001*[#  10]
          
    |psi|^2 = 0.021
==== e(  19) =    19.24416 eV ==== 
     psi = 0.015*[#   7]+0.015*[#   8]+0.003*[#  11]+0.003*[#  12]
    |psi|^2 = 0.037
==== e(  20) =    20.08100 eV ==== 
     psi = 0.036*[#   6]+0.031*[#   7]+0.031*[#   8]+0.014*[#  10]+0.013*[#   5]
          +0.003*[#  11]+0.003*[#  12]
    |psi|^2 = 0.132
==== e(  21) =    20.72349 eV ==== 
     psi = 0.027*[#   7]+0.027*[#   8]+0.003*[#  11]+0.003*[#  12]
    |psi|^2 = 0.059
==== e(  22) =    23.07407 eV ==== 
     psi = 0.004*[#   7]+0.004*[#   8]
    |psi|^2 = 0.011
==== e(  23) =    23.22517 eV ==== 
     psi = 0.018*[#   7]+0.018*[#   8]+0.002*[#  11]+0.002*[#  12]
    |psi|^2 = 0.039
==== e(  24) =    24.30949 eV ==== 
     psi = 0.021*[#   6]+0.002*[#   7]+0.002*[#   8]+0.001*[#  10]+0.001*[#  11]
          +0.001*[#  12]
    |psi|^2 = 0.031
==== e(  25) =    26.27510 eV ==== 
     psi = 0.004*[#   6]+0.002*[#   7]+0.002*[#   8]+0.001*[#   5]
    |psi|^2 = 0.011
==== e(  26) =    27.29578 eV ==== 
     psi = 0.009*[#   7]+0.009*[#   8]+0.001*[#  11]+0.001*[#  12]
    |psi|^2 = 0.021
==== e(  27) =    28.31089 eV ==== 
     psi = 0.016*[#   6]+0.001*[#   5]+0.001*[#   7]+0.001*[#   8]+0.001*[#  10]
          +0.001*[#  11]+0.001*[#  12]
    |psi|^2 = 0.024
==== e(  28) =    29.51991 eV ==== 
 
    |psi|^2 = 0.002
==== e(  29) =    29.70527 eV ==== 
     psi = 0.002*[#   6]+0.001*[#  10]
    |psi|^2 = 0.004
==== e(  30) =    30.50425 eV ==== 
     psi = 0.009*[#   6]+0.003*[#   7]+0.003*[#   8]
    |psi|^2 = 0.017
==== e(  31) =    32.20783 eV ==== 
 
    |psi|^2 = 0.000
==== e(  32) =    32.80848 eV ==== 
     psi = 0.001*[#   7]+0.001*[#   8]
    |psi|^2 = 0.004
==== e(  33) =    33.07116 eV ==== 
     psi = 0.005*[#   7]+0.005*[#   8]
    |psi|^2 = 0.011

 k =   0.1767766953 -0.1767766953  0.0000000000
==== e(   1) =   -72.00811 eV ==== 
     psi = 0.997*[#   1]
    |psi|^2 = 1.000
==== e(   2) =   -38.96364 eV ==== 
     psi = 0.490*[#   3]+0.490*[#   4]+0.006*[#   2]+0.006*[#   7]+0.006*[#   8]
          
    |psi|^2 = 1.000
==== e(   3) =   -38.96342 eV ==== 
     psi = 0.978*[#   2]+0.015*[#   6]+0.003*[#   3]+0.003*[#   4]
    |psi|^2 = 1.000
==== e(   4) =   -38.96333 eV ==== 
     psi = 0.492*[#   3]+0.492*[#   4]+0.008*[#   7]+0.008*[#   8]
    |psi|^2 = 1.000
==== e(   5) =    -8.79647 eV ==== 
     psi = 0.745*[#   9]+0.203*[#   5]+0.023*[#   7]+0.023*[#   8]+0.002*[#   6]
          
    |psi|^2 = 0.999
==== e(   6) =     0.69951 eV ==== 
     psi = 0.373*[#  11]+0.373*[#  12]+0.145*[#   5]+0.051*[#   9]+0.046*[#   6]
          +0.004*[#  10]
    |psi|^2 = 0.993
==== e(   7) =     1.55067 eV ==== 
     psi = 0.897*[#  10]+0.033*[#   7]+0.033*[#   8]+0.016*[#   6]+0.007*[#   5]
          +0.003*[#  11]+0.003*[#  12]
    |psi|^2 = 0.992
==== e(   8) =     1.83599 eV ==== 
     psi = 0.478*[#  11]+0.478*[#  12]+0.017*[#   7]+0.017*[#   8]
    |psi|^2 = 0.991
==== e(   9) =     5.90694 eV ==== 
     psi = 0.532*[#   5]+0.192*[#   9]+0.076*[#  11]+0.076*[#  12]+0.039*[#   7]
          +0.039*[#   8]+0.028*[#   6]+0.002*[#  10]
    |psi|^2 = 0.984
==== e(  10) =     8.84184 eV ==== 
     psi = 0.291*[#   7]+0.291*[#   8]+0.082*[#   5]+0.062*[#  10]+0.005*[#  11]
          +0.005*[#  12]+0.005*[#   3]+0.005*[#   4]+0.002*[#   9]
    |psi|^2 = 0.749
==== e(  11) =     9.62131 eV ==== 
     psi = 0.609*[#   6]+0.028*[#  11]+0.028*[#  12]+0.011*[#   2]+0.009*[#  10]
          +0.003*[#   5]+0.003*[#   7]+0.003*[#   8]
    |psi|^2 = 0.693
==== e(  12) =     9.70150 eV ==== 
     psi = 0.385*[#   7]+0.385*[#   8]+0.014*[#  11]+0.014*[#  12]+0.007*[#   3]
          +0.007*[#   4]
    |psi|^2 = 0.813
==== e(  13) =    11.04485 eV ==== 
     psi = 0.002*[#   7]+0.002*[#   8]
    |psi|^2 = 0.004
==== e(  14) =    12.19229 eV ==== 
     psi = 0.082*[#   6]+0.008*[#   5]+0.004*[#  11]+0.004*[#  12]+0.002*[#   7]
          +0.002*[#   8]+0.001*[#   2]+0.001*[#  10]
    |psi|^2 = 0.105
==== e(  15) =    14.65964 eV ==== 
     psi = 0.004*[#   7]+0.004*[#   8]+0.004*[#   5]
    |psi|^2 = 0.013
==== e(  16) =    15.17059 eV ==== 
     psi = 0.030*[#   6]+0.014*[#   7]+0.014*[#   8]+0.005*[#  10]+0.003*[#   9]
          
    |psi|^2 = 0.068
==== e(  17) =    16.49309 eV ==== 
     psi = 0.010*[#   7]+0.010*[#   8]+0.005*[#   6]+0.002*[#   9]
    |psi|^2 = 0.027
==== e(  18) =    17.56277 eV ==== 
     psi = 0.009*[#   7]+0.009*[#   8]
    |psi|^2 = 0.020
==== e(  19) =    19.59816 eV ==== 
     psi = 0.043*[#   6]+0.006*[#  11]+0.006*[#  12]+0.004*[#   7]+0.004*[#   8]
          +0.003*[#   5]
    |psi|^2 = 0.066
==== e(  20) =    20.56995 eV ==== 
     psi = 0.032*[#   7]+0.032*[#   8]+0.004*[#  10]+0.002*[#   5]+0.002*[#   9]
          
    |psi|^2 = 0.075
==== e(  21) =    21.85478 eV ==== 
     psi = 0.044*[#   6]+0.011*[#   7]+0.011*[#   8]+0.008*[#  10]+0.004*[#   5]
          
    |psi|^2 = 0.082
==== e(  22) =    22.67646 eV ==== 
     psi = 0.019*[#   7]+0.019*[#   8]+0.004*[#  11]+0.004*[#  12]
    |psi|^2 = 0.045
==== e(  23) =    23.10130 eV ==== 
     psi = 0.029*[#   7]+0.029*[#   8]
    |psi|^2 = 0.060
==== e(  24) =    24.54223 eV ==== 
     psi = 0.010*[#   6]+0.002*[#   7]+0.002*[#   8]
    |psi|^2 = 0.018
==== e(  25) =    26.19832 eV ==== 
     psi = 0.007*[#   7]+0.007*[#   8]+0.003*[#   6]+0.001*[#   5]
    |psi|^2 = 0.020
==== e(  26) =    27.05035 eV ==== 
     psi = 0.009*[#   7]+0.009*[#   8]+0.001*[#  11]+0.001*[#  12]
    |psi|^2 = 0.022
==== e(  27) =    28.12357 eV ==== 
     psi = 0.024*[#   6]+0.002*[#  10]
    |psi|^2 = 0.028
==== e(  28) =    31.08150 eV ==== 
 
    |psi|^2 = 0.001
==== e(  29) =    31.09304 eV ==== 
     psi = 0.008*[#   6]
    |psi|^2 = 0.010
==== e(  30) =    31.89979 eV ==== 
     psi = 0.003*[#   7]+0.003*[#   8]+0.002*[#   6]
    |psi|^2 = 0.011
==== e(  31) =    32.16715 eV ==== 
     psi = 0.002*[#   7]+0.002*[#   8]
    |psi|^2 = 0.004
==== e(  32) =    33.98606 eV ==== 
     psi = 0.001*[#   7]+0.001*[#   8]
    |psi|^2 = 0.004
==== e(  33) =    33.98904 eV ==== 
 
    |psi|^2 = 0.001

 k =   0.1767766953 -0.1767766953  0.1767766953
==== e(   1) =   -72.00811 eV ==== 
     psi = 0.997*[#   1]
    |psi|^2 = 1.000
==== e(   2) =   -38.96384 eV ==== 
     psi = 0.329*[#   2]+0.329*[#   3]+0.329*[#   4]+0.003*[#   6]+0.003*[#   7]
          +0.003*[#   8]
    |psi|^2 = 1.000
==== e(   3) =   -38.96337 eV ==== 
     psi = 0.594*[#   2]+0.304*[#   3]+0.087*[#   4]+0.009*[#   6]+0.005*[#   7]
          +0.001*[#   8]
    |psi|^2 = 1.000
==== e(   4) =   -38.96337 eV ==== 
     psi = 0.569*[#   4]+0.352*[#   3]+0.062*[#   2]+0.009*[#   8]+0.006*[#   7]
          
    |psi|^2 = 1.000
==== e(   5) =    -8.72766 eV ==== 
     psi = 0.759*[#   9]+0.173*[#   5]+0.021*[#   6]+0.021*[#   7]+0.021*[#   8]
          
    |psi|^2 = 0.999
==== e(   6) =     0.22784 eV ==== 
     psi = 0.237*[#  10]+0.237*[#  11]+0.237*[#  12]+0.157*[#   5]+0.043*[#   9]
          +0.028*[#   6]+0.028*[#   7]+0.028*[#   8]+0.001*[#   1]
    |psi|^2 = 0.995
==== e(   7) =     1.73290 eV ==== 
     psi = 0.589*[#  10]+0.236*[#  12]+0.111*[#  11]+0.035*[#   6]+0.014*[#   8]
          +0.007*[#   7]
    |psi|^2 = 0.992
==== e(   8) =     1.73290 eV ==== 
     psi = 0.513*[#  11]+0.388*[#  12]+0.035*[#  10]+0.030*[#   7]+0.023*[#   8]
          +0.002*[#   6]
    |psi|^2 = 0.992
==== e(   9) =     6.06683 eV ==== 
     psi = 0.516*[#   5]+0.180*[#   9]+0.055*[#   6]+0.055*[#   7]+0.055*[#   8]
          +0.033*[#  10]+0.033*[#  11]+0.033*[#  12]
    |psi|^2 = 0.963
==== e(  10) =     9.00467 eV ==== 
     psi = 0.157*[#   6]+0.157*[#   7]+0.157*[#   8]+0.120*[#   5]+0.051*[#  10]
          +0.051*[#  11]+0.051*[#  12]+0.005*[#   9]+0.003*[#   2]+0.003*[#   3]
          +0.003*[#   4]
    |psi|^2 = 0.758
==== e(  11) =     9.59537 eV ==== 
     psi = 0.275*[#   8]+0.226*[#   7]+0.148*[#   6]+0.016*[#  12]+0.013*[#  11]
          +0.008*[#  10]+0.005*[#   4]+0.004*[#   3]+0.003*[#   2]
    |psi|^2 = 0.697
==== e(  12) =     9.59537 eV ==== 
     psi = 0.285*[#   6]+0.207*[#   7]+0.157*[#   8]+0.016*[#  10]+0.012*[#  11]
          +0.009*[#  12]+0.005*[#   2]+0.004*[#   3]+0.003*[#   4]
    |psi|^2 = 0.697
==== e(  13) =    11.83967 eV ==== 
     psi = 0.048*[#   7]+0.034*[#   8]+0.011*[#   6]+0.004*[#  11]+0.003*[#  12]
          
    |psi|^2 = 0.102
==== e(  14) =    11.83967 eV ==== 
     psi = 0.051*[#   6]+0.028*[#   8]+0.014*[#   7]+0.004*[#  10]+0.002*[#  12]
          +0.001*[#  11]
    |psi|^2 = 0.102
==== e(  15) =    13.26313 eV ==== 
     psi = 0.010*[#   5]+0.003*[#   6]+0.003*[#   7]+0.003*[#   8]+0.003*[#   9]
          
    |psi|^2 = 0.024
==== e(  16) =    16.91296 eV ==== 
     psi = 0.019*[#   6]+0.019*[#   7]+0.019*[#   8]+0.006*[#   9]+0.002*[#   5]
          +0.002*[#  10]+0.002*[#  11]+0.002*[#  12]
    |psi|^2 = 0.072
==== e(  17) =    17.71290 eV ==== 
     psi = 0.015*[#   8]+0.008*[#   6]+0.003*[#   7]+0.002*[#  12]+0.001*[#  10]
          
    |psi|^2 = 0.030
==== e(  18) =    17.71290 eV ==== 
     psi = 0.014*[#   7]+0.009*[#   6]+0.002*[#   8]+0.002*[#  11]+0.001*[#  10]
          
    |psi|^2 = 0.030
==== e(  19) =    19.55778 eV ==== 
     psi = 0.025*[#   6]+0.025*[#   7]+0.025*[#   8]+0.013*[#   5]+0.007*[#  10]
          +0.007*[#  11]+0.007*[#  12]
    |psi|^2 = 0.109
==== e(  20) =    20.16359 eV ==== 
     psi = 0.041*[#   8]+0.017*[#   6]+0.006*[#   7]+0.004*[#  12]+0.002*[#  10]
          
    |psi|^2 = 0.072
==== e(  21) =    20.16359 eV ==== 
     psi = 0.037*[#   7]+0.026*[#   6]+0.004*[#  11]+0.003*[#  10]+0.002*[#   8]
          
    |psi|^2 = 0.072
==== e(  22) =    21.67213 eV ==== 
     psi = 0.007*[#   6]+0.007*[#   7]+0.007*[#   8]+0.002*[#   9]+0.001*[#   5]
          
    |psi|^2 = 0.026
==== e(  23) =    25.20464 eV ==== 
     psi = 0.014*[#   6]+0.004*[#   8]+0.004*[#   7]
    |psi|^2 = 0.022
==== e(  24) =    25.20464 eV ==== 
     psi = 0.011*[#   7]+0.010*[#   8]
    |psi|^2 = 0.022
==== e(  25) =    26.35227 eV ==== 
     psi = 0.018*[#   6]+0.014*[#   8]+0.003*[#  10]+0.002*[#  12]+0.001*[#   7]
          
    |psi|^2 = 0.039
==== e(  26) =    26.35227 eV ==== 
     psi = 0.021*[#   7]+0.008*[#   8]+0.004*[#   6]+0.003*[#  11]+0.001*[#  12]
          
    |psi|^2 = 0.039
==== e(  27) =    28.09990 eV ==== 
     psi = 0.003*[#   6]+0.003*[#   7]+0.003*[#   8]+0.002*[#   5]
    |psi|^2 = 0.011
==== e(  28) =    29.82521 eV ==== 
     psi = 0.003*[#   6]+0.003*[#   7]+0.003*[#   8]+0.001*[#   5]
    |psi|^2 = 0.014
==== e(  29) =    31.19965 eV ==== 
     psi = 0.002*[#   7]
    |psi|^2 = 0.003
==== e(  30) =    31.19965 eV ==== 
     psi = 0.002*[#   6]+0.001*[#   8]
    |psi|^2 = 0.003
==== e(  31) =    31.28804 eV ==== 
 
    |psi|^2 = 0.000
==== e(  32) =    33.93580 eV ==== 
     psi = 0.002*[#   8]+0.001*[#   7]
    |psi|^2 = 0.005
[...]
          
    |psi|^2 = 0.019
==== e(  25) =    25.56505 eV ==== 
     psi = 0.012*[#   7]+0.005*[#   6]+0.005*[#   8]+0.001*[#  11]
    |psi|^2 = 0.025
==== e(  26) =    25.75367 eV ==== 
     psi = 0.006*[#   6]+0.006*[#   8]+0.001*[#  10]+0.001*[#  12]
    |psi|^2 = 0.015
==== e(  27) =    26.84396 eV ==== 
     psi = 0.002*[#   6]+0.002*[#   8]+0.001*[#  11]
    |psi|^2 = 0.005
==== e(  28) =    28.89280 eV ==== 
 
    |psi|^2 = 0.003
==== e(  29) =    29.06779 eV ==== 
     psi = 0.004*[#   6]+0.004*[#   8]
    |psi|^2 = 0.009
==== e(  30) =    29.90967 eV ==== 
     psi = 0.001*[#   7]
    |psi|^2 = 0.003
==== e(  31) =    30.59748 eV ==== 
     psi = 0.008*[#   6]+0.008*[#   8]
    |psi|^2 = 0.018
==== e(  32) =    30.90805 eV ==== 
     psi = 0.012*[#   7]+0.002*[#   6]+0.002*[#   8]+0.001*[#  11]
    |psi|^2 = 0.019
==== e(  33) =    32.51912 eV ==== 
 
    |psi|^2 = 0.003

 k =   0.1767766953 -0.3535533906 -0.3535533906
==== e(   1) =   -72.00809 eV ==== 
     psi = 0.996*[#   1]+0.001*[#  10]+0.001*[#  11]+0.001*[#  12]
    |psi|^2 = 1.000
==== e(   2) =   -38.96432 eV ==== 
     psi = 0.358*[#   2]+0.358*[#   4]+0.274*[#   3]+0.003*[#   6]+0.003*[#   8]
          +0.002*[#   7]
    |psi|^2 = 1.000
==== e(   3) =   -38.96358 eV ==== 
     psi = 0.712*[#   3]+0.136*[#   2]+0.136*[#   4]+0.010*[#   7]+0.002*[#   6]
          +0.002*[#   8]
    |psi|^2 = 1.000
==== e(   4) =   -38.96347 eV ==== 
     psi = 0.492*[#   2]+0.492*[#   4]+0.008*[#   6]+0.008*[#   8]
    |psi|^2 = 1.000
==== e(   5) =    -8.46502 eV ==== 
     psi = 0.815*[#   9]+0.069*[#   5]+0.039*[#   6]+0.039*[#   8]+0.035*[#   7]
          
    |psi|^2 = 0.999
==== e(   6) =    -0.62081 eV ==== 
     psi = 0.239*[#  10]+0.239*[#  12]+0.192*[#   5]+0.178*[#  11]+0.061*[#   7]
          +0.040*[#   6]+0.040*[#   8]+0.008*[#   9]+0.001*[#   1]
    |psi|^2 = 0.998
==== e(   7) =     1.20126 eV ==== 
     psi = 0.624*[#  11]+0.113*[#  10]+0.113*[#  12]+0.040*[#   7]+0.033*[#   6]
          +0.033*[#   8]+0.032*[#   5]+0.005*[#   9]
    |psi|^2 = 0.993
==== e(   8) =     1.58962 eV ==== 
     psi = 0.454*[#  10]+0.454*[#  12]+0.042*[#   6]+0.042*[#   8]
    |psi|^2 = 0.993
==== e(   9) =     6.88372 eV ==== 
     psi = 0.434*[#   5]+0.125*[#   9]+0.110*[#   7]+0.071*[#   6]+0.071*[#   8]
          +0.028*[#  11]+0.022*[#  10]+0.022*[#  12]
    |psi|^2 = 0.885
==== e(  10) =     8.49496 eV ==== 
     psi = 0.276*[#   7]+0.096*[#   6]+0.096*[#   8]+0.046*[#  10]+0.046*[#  12]
          +0.029*[#  11]+0.025*[#   5]+0.005*[#   3]+0.001*[#   2]+0.001*[#   4]
          
    |psi|^2 = 0.623
==== e(  11) =     9.52273 eV ==== 
     psi = 0.260*[#   6]+0.260*[#   8]+0.021*[#  10]+0.021*[#  12]+0.005*[#   2]
          +0.005*[#   4]
    |psi|^2 = 0.572
==== e(  12) =     9.78510 eV ==== 
     psi = 0.196*[#   5]+0.130*[#   7]+0.088*[#   6]+0.088*[#   8]+0.087*[#  11]
          +0.044*[#  10]+0.044*[#  12]+0.009*[#   9]+0.002*[#   3]+0.002*[#   2]
          +0.002*[#   4]+0.001*[#   1]
    |psi|^2 = 0.694
==== e(  13) =    12.62498 eV ==== 
     psi = 0.082*[#   6]+0.082*[#   8]+0.010*[#  10]+0.010*[#  12]+0.002*[#   2]
          +0.002*[#   4]
    |psi|^2 = 0.187
==== e(  14) =    13.79674 eV ==== 
     psi = 0.057*[#   7]+0.026*[#   6]+0.026*[#   8]+0.012*[#   9]+0.005*[#   5]
          +0.003*[#  11]
    |psi|^2 = 0.131
==== e(  15) =    14.60123 eV ==== 
     psi = 0.043*[#   7]+0.033*[#   6]+0.033*[#   8]+0.014*[#  11]+0.011*[#   9]
          +0.005*[#   5]+0.003*[#  10]+0.003*[#  12]
    |psi|^2 = 0.148
==== e(  16) =    14.86638 eV ==== 
     psi = 0.113*[#   7]+0.018*[#  10]+0.018*[#  12]+0.014*[#   5]+0.004*[#   6]
          +0.004*[#   8]+0.003*[#  11]+0.002*[#   3]
    |psi|^2 = 0.176
==== e(  17) =    17.30147 eV ==== 
     psi = 0.034*[#   7]+0.030*[#   6]+0.030*[#   8]+0.016*[#  11]+0.015*[#   5]
          +0.006*[#   9]+0.004*[#  10]+0.004*[#  12]
    |psi|^2 = 0.141
==== e(  18) =    17.47438 eV ==== 
     psi = 0.053*[#   6]+0.053*[#   8]+0.008*[#  10]+0.008*[#  12]+0.001*[#   2]
          +0.001*[#   4]
    |psi|^2 = 0.123
==== e(  19) =    19.73359 eV ==== 
     psi = 0.004*[#   7]+0.002*[#   6]+0.002*[#   8]+0.002*[#  11]+0.001*[#   5]
          +0.001*[#   9]
    |psi|^2 = 0.015
==== e(  20) =    21.47929 eV ==== 
     psi = 0.009*[#   6]+0.009*[#   8]+0.006*[#   5]+0.004*[#   7]+0.004*[#  11]
          +0.003*[#  10]+0.003*[#  12]+0.001*[#   9]
    |psi|^2 = 0.038
==== e(  21) =    21.92698 eV ==== 
     psi = 0.009*[#   6]+0.009*[#   8]+0.001*[#  10]+0.001*[#  12]
    |psi|^2 = 0.022
==== e(  22) =    23.70748 eV ==== 
     psi = 0.008*[#   6]+0.008*[#   8]+0.001*[#  10]+0.001*[#  12]
    |psi|^2 = 0.019
==== e(  23) =    24.01053 eV ==== 
     psi = 0.025*[#   7]+0.004*[#   6]+0.004*[#   8]+0.003*[#  10]+0.003*[#  12]
          +0.002*[#  11]
    |psi|^2 = 0.043
==== e(  24) =    24.86589 eV ==== 
     psi = 0.006*[#   7]+0.004*[#   6]+0.004*[#   8]+0.003*[#   5]+0.001*[#   9]
          
    |psi|^2 = 0.020
==== e(  25) =    25.82557 eV ==== 
     psi = 0.002*[#   6]+0.002*[#   8]+0.001*[#   7]
    |psi|^2 = 0.006
==== e(  26) =    26.11588 eV ==== 
     psi = 0.008*[#   6]+0.008*[#   8]
    |psi|^2 = 0.018
==== e(  27) =    26.76694 eV ==== 
     psi = 0.007*[#   7]
    |psi|^2 = 0.009
==== e(  28) =    28.54513 eV ==== 
     psi = 0.004*[#   6]+0.004*[#   8]+0.001*[#  10]+0.001*[#  12]
    |psi|^2 = 0.010
==== e(  29) =    28.84228 eV ==== 
     psi = 0.004*[#   7]
    |psi|^2 = 0.005
==== e(  30) =    30.52865 eV ==== 
     psi = 0.008*[#   7]+0.003*[#   6]+0.003*[#   8]+0.002*[#  11]
    |psi|^2 = 0.018
==== e(  31) =    31.03184 eV ==== 
     psi = 0.003*[#   7]
    |psi|^2 = 0.005
==== e(  32) =    31.12796 eV ==== 
     psi = 0.005*[#   6]+0.005*[#   8]
    |psi|^2 = 0.012
==== e(  33) =    33.03265 eV ==== 
     psi = 0.003*[#   6]+0.003*[#   8]
    |psi|^2 = 0.007

 k =   0.0883883476 -0.2651650429 -0.2651650429
==== e(   1) =   -72.00810 eV ==== 
     psi = 0.997*[#   1]
    |psi|^2 = 1.000
==== e(   2) =   -38.96400 eV ==== 
     psi = 0.425*[#   2]+0.425*[#   4]+0.138*[#   3]+0.004*[#   6]+0.004*[#   8]
          +0.001*[#   7]
    |psi|^2 = 1.000
==== e(   3) =   -38.96353 eV ==== 
     psi = 0.847*[#   3]+0.069*[#   2]+0.069*[#   4]+0.012*[#   7]
    |psi|^2 = 1.000
==== e(   4) =   -38.96339 eV ==== 
     psi = 0.492*[#   2]+0.492*[#   4]+0.008*[#   6]+0.008*[#   8]
    |psi|^2 = 1.000
==== e(   5) =    -8.61930 eV ==== 
     psi = 0.781*[#   9]+0.128*[#   5]+0.037*[#   6]+0.037*[#   8]+0.015*[#   7]
          
    |psi|^2 = 0.999
==== e(   6) =    -0.06585 eV ==== 
     psi = 0.299*[#  10]+0.299*[#  12]+0.175*[#   5]+0.090*[#  11]+0.063*[#   7]
          +0.036*[#   9]+0.016*[#   6]+0.016*[#   8]+0.001*[#   1]
    |psi|^2 = 0.996
==== e(   7) =     1.29305 eV ==== 
     psi = 0.752*[#  11]+0.055*[#  10]+0.055*[#  12]+0.041*[#   6]+0.041*[#   8]
          +0.024*[#   7]+0.022*[#   5]+0.002*[#   9]
    |psi|^2 = 0.993
==== e(   8) =     1.72898 eV ==== 
     psi = 0.467*[#  10]+0.467*[#  12]+0.029*[#   6]+0.029*[#   8]
    |psi|^2 = 0.992
==== e(   9) =     6.69210 eV ==== 
     psi = 0.472*[#   5]+0.153*[#   9]+0.066*[#   6]+0.066*[#   8]+0.066*[#   7]
          +0.059*[#  10]+0.059*[#  12]+0.006*[#  11]
    |psi|^2 = 0.948
==== e(  10) =     8.75237 eV ==== 
     psi = 0.198*[#   6]+0.198*[#   8]+0.098*[#   5]+0.098*[#  11]+0.090*[#   7]
          +0.020*[#  10]+0.020*[#  12]+0.004*[#   9]+0.003*[#   2]+0.003*[#   4]
          +0.002*[#   3]
    |psi|^2 = 0.735
==== e(  11) =     9.30104 eV ==== 
     psi = 0.373*[#   7]+0.055*[#   5]+0.036*[#  10]+0.036*[#  12]+0.028*[#   6]
          +0.028*[#   8]+0.014*[#  11]+0.006*[#   3]+0.004*[#   9]
    |psi|^2 = 0.582
==== e(  12) =     9.72334 eV ==== 
     psi = 0.305*[#   6]+0.305*[#   8]+0.018*[#  10]+0.018*[#  12]+0.005*[#   2]
          +0.005*[#   4]
    |psi|^2 = 0.656
==== e(  13) =    11.26834 eV ==== 
     psi = 0.065*[#   6]+0.065*[#   8]+0.005*[#  10]+0.005*[#  12]+0.001*[#   2]
          +0.001*[#   4]
    |psi|^2 = 0.143
==== e(  14) =    13.18340 eV ==== 
     psi = 0.158*[#   7]+0.016*[#   5]+0.013*[#  10]+0.013*[#  12]+0.003*[#   3]
          +0.003*[#   6]+0.003*[#   8]+0.002*[#  11]
    |psi|^2 = 0.210
==== e(  15) =    14.15223 eV ==== 
     psi = 0.008*[#   6]+0.008*[#   8]+0.004*[#   9]+0.002*[#   7]+0.002*[#  11]
          +0.002*[#   5]
    |psi|^2 = 0.029
==== e(  16) =    16.25380 eV ==== 
     psi = 0.049*[#   7]+0.035*[#   6]+0.035*[#   8]+0.011*[#  11]+0.008*[#   9]
          +0.007*[#   5]+0.002*[#  10]+0.002*[#  12]
    |psi|^2 = 0.151
==== e(  17) =    17.67573 eV ==== 
     psi = 0.020*[#   7]+0.004*[#  10]+0.004*[#  12]+0.004*[#   6]+0.004*[#   8]
          +0.003*[#   5]
    |psi|^2 = 0.043
==== e(  18) =    18.36066 eV ==== 
     psi = 0.009*[#   7]+0.003*[#   6]+0.003*[#   8]+0.002*[#   9]+0.001*[#  11]
          
    |psi|^2 = 0.021
==== e(  19) =    19.24416 eV ==== 
     psi = 0.015*[#   6]+0.015*[#   8]+0.003*[#  10]+0.003*[#  12]
    |psi|^2 = 0.037
==== e(  20) =    20.08100 eV ==== 
     psi = 0.036*[#   7]+0.031*[#   6]+0.031*[#   8]+0.014*[#  11]+0.013*[#   5]
          +0.003*[#  10]+0.003*[#  12]
    |psi|^2 = 0.132
==== e(  21) =    20.72349 eV ==== 
     psi = 0.027*[#   6]+0.027*[#   8]+0.003*[#  10]+0.003*[#  12]
    |psi|^2 = 0.059
==== e(  22) =    23.07407 eV ==== 
     psi = 0.004*[#   6]+0.004*[#   8]
    |psi|^2 = 0.011
==== e(  23) =    23.22517 eV ==== 
     psi = 0.018*[#   6]+0.018*[#   8]+0.002*[#  10]+0.002*[#  12]
    |psi|^2 = 0.039
==== e(  24) =    24.30949 eV ==== 
     psi = 0.021*[#   7]+0.002*[#   6]+0.002*[#   8]+0.001*[#  10]+0.001*[#  11]
          +0.001*[#  12]
    |psi|^2 = 0.031
==== e(  25) =    26.27510 eV ==== 
     psi = 0.004*[#   7]+0.002*[#   6]+0.002*[#   8]+0.001*[#   5]
    |psi|^2 = 0.011
==== e(  26) =    27.29578 eV ==== 
     psi = 0.009*[#   6]+0.009*[#   8]+0.001*[#  10]+0.001*[#  12]
    |psi|^2 = 0.021
==== e(  27) =    28.31089 eV ==== 
     psi = 0.016*[#   7]+0.001*[#   5]+0.001*[#   6]+0.001*[#   8]+0.001*[#  11]
          +0.001*[#  10]+0.001*[#  12]
    |psi|^2 = 0.024
==== e(  28) =    29.51991 eV ==== 
 
    |psi|^2 = 0.002
==== e(  29) =    29.70527 eV ==== 
     psi = 0.002*[#   7]+0.001*[#  11]
    |psi|^2 = 0.004
==== e(  30) =    30.50425 eV ==== 
     psi = 0.009*[#   7]+0.003*[#   6]+0.003*[#   8]
    |psi|^2 = 0.017
==== e(  31) =    32.20783 eV ==== 
 
    |psi|^2 = 0.000
==== e(  32) =    32.80848 eV ==== 
     psi = 0.001*[#   6]+0.001*[#   8]
    |psi|^2 = 0.004
==== e(  33) =    33.07116 eV ==== 
     psi = 0.005*[#   6]+0.005*[#   8]
    |psi|^2 = 0.011

 k =   0.0000000000 -0.1767766953 -0.1767766953
==== e(   1) =   -72.00811 eV ==== 
     psi = 0.997*[#   1]
    |psi|^2 = 1.000
==== e(   2) =   -38.96364 eV ==== 
     psi = 0.490*[#   2]+0.490*[#   4]+0.006*[#   3]+0.006*[#   6]+0.006*[#   8]
          
    |psi|^2 = 1.000
==== e(   3) =   -38.96342 eV ==== 
     psi = 0.978*[#   3]+0.015*[#   7]+0.003*[#   2]+0.003*[#   4]
    |psi|^2 = 1.000
==== e(   4) =   -38.96333 eV ==== 
     psi = 0.492*[#   2]+0.492*[#   4]+0.008*[#   6]+0.008*[#   8]
    |psi|^2 = 1.000
==== e(   5) =    -8.79647 eV ==== 
     psi = 0.745*[#   9]+0.203*[#   5]+0.023*[#   6]+0.023*[#   8]+0.002*[#   7]
          
    |psi|^2 = 0.999
==== e(   6) =     0.69951 eV ==== 
     psi = 0.373*[#  10]+0.373*[#  12]+0.145*[#   5]+0.051*[#   9]+0.046*[#   7]
          +0.004*[#  11]
    |psi|^2 = 0.993
==== e(   7) =     1.55067 eV ==== 
     psi = 0.897*[#  11]+0.033*[#   6]+0.033*[#   8]+0.016*[#   7]+0.007*[#   5]
          +0.003*[#  10]+0.003*[#  12]
    |psi|^2 = 0.992
==== e(   8) =     1.83599 eV ==== 
     psi = 0.478*[#  10]+0.478*[#  12]+0.017*[#   6]+0.017*[#   8]
    |psi|^2 = 0.991
==== e(   9) =     5.90694 eV ==== 
     psi = 0.532*[#   5]+0.192*[#   9]+0.076*[#  10]+0.076*[#  12]+0.039*[#   6]
          +0.039*[#   8]+0.028*[#   7]+0.002*[#  11]
    |psi|^2 = 0.984
==== e(  10) =     8.84184 eV ==== 
     psi = 0.291*[#   6]+0.291*[#   8]+0.082*[#   5]+0.062*[#  11]+0.005*[#  10]
          +0.005*[#  12]+0.005*[#   2]+0.005*[#   4]+0.002*[#   9]
    |psi|^2 = 0.749
==== e(  11) =     9.62131 eV ==== 
     psi = 0.609*[#   7]+0.028*[#  10]+0.028*[#  12]+0.011*[#   3]+0.009*[#  11]
          +0.003*[#   5]+0.003*[#   6]+0.003*[#   8]
    |psi|^2 = 0.693
==== e(  12) =     9.70150 eV ==== 
     psi = 0.385*[#   6]+0.385*[#   8]+0.014*[#  10]+0.014*[#  12]+0.007*[#   2]
          +0.007*[#   4]
    |psi|^2 = 0.813
==== e(  13) =    11.04485 eV ==== 
     psi = 0.002*[#   6]+0.002*[#   8]
    |psi|^2 = 0.004
==== e(  14) =    12.19229 eV ==== 
     psi = 0.082*[#   7]+0.008*[#   5]+0.004*[#  10]+0.004*[#  12]+0.002*[#   6]
          +0.002*[#   8]+0.001*[#   3]+0.001*[#  11]
    |psi|^2 = 0.105
==== e(  15) =    14.65964 eV ==== 
     psi = 0.004*[#   6]+0.004*[#   8]+0.004*[#   5]
    |psi|^2 = 0.013
==== e(  16) =    15.17059 eV ==== 
     psi = 0.030*[#   7]+0.014*[#   6]+0.014*[#   8]+0.005*[#  11]+0.003*[#   9]
          
    |psi|^2 = 0.068
==== e(  17) =    16.49309 eV ==== 
     psi = 0.010*[#   6]+0.010*[#   8]+0.005*[#   7]+0.002*[#   9]
    |psi|^2 = 0.027
==== e(  18) =    17.56277 eV ==== 
     psi = 0.009*[#   6]+0.009*[#   8]
    |psi|^2 = 0.020
==== e(  19) =    19.59816 eV ==== 
     psi = 0.043*[#   7]+0.006*[#  10]+0.006*[#  12]+0.004*[#   6]+0.004*[#   8]
          +0.003*[#   5]
    |psi|^2 = 0.066
==== e(  20) =    20.56995 eV ==== 
     psi = 0.032*[#   6]+0.032*[#   8]+0.004*[#  11]+0.002*[#   5]+0.002*[#   9]
          
    |psi|^2 = 0.075
==== e(  21) =    21.85478 eV ==== 
     psi = 0.044*[#   7]+0.011*[#   6]+0.011*[#   8]+0.008*[#  11]+0.004*[#   5]
          
    |psi|^2 = 0.082
==== e(  22) =    22.67646 eV ==== 
     psi = 0.019*[#   6]+0.019*[#   8]+0.004*[#  10]+0.004*[#  12]
    |psi|^2 = 0.045
==== e(  23) =    23.10130 eV ==== 
     psi = 0.029*[#   6]+0.029*[#   8]
    |psi|^2 = 0.060
==== e(  24) =    24.54223 eV ==== 
     psi = 0.010*[#   7]+0.002*[#   6]+0.002*[#   8]
    |psi|^2 = 0.018
==== e(  25) =    26.19832 eV ==== 
     psi = 0.007*[#   6]+0.007*[#   8]+0.003*[#   7]+0.001*[#   5]
    |psi|^2 = 0.020
==== e(  26) =    27.05035 eV ==== 
     psi = 0.009*[#   6]+0.009*[#   8]+0.001*[#  10]+0.001*[#  12]
    |psi|^2 = 0.022
==== e(  27) =    28.12357 eV ==== 
     psi = 0.024*[#   7]+0.002*[#  11]
    |psi|^2 = 0.028
==== e(  28) =    31.08150 eV ==== 
 
    |psi|^2 = 0.001
==== e(  29) =    31.09304 eV ==== 
     psi = 0.008*[#   7]
    |psi|^2 = 0.010
==== e(  30) =    31.89979 eV ==== 
     psi = 0.003*[#   6]+0.003*[#   8]+0.002*[#   7]
    |psi|^2 = 0.011
==== e(  31) =    32.16715 eV ==== 
     psi = 0.002*[#   6]+0.002*[#   8]
    |psi|^2 = 0.004
==== e(  32) =    33.98606 eV ==== 
     psi = 0.001*[#   6]+0.001*[#   8]
    |psi|^2 = 0.004
==== e(  33) =    33.98904 eV ==== 
 
    |psi|^2 = 0.001

 k =  -0.0883883476 -0.0883883476 -0.0883883476
==== e(   1) =   -72.00812 eV ==== 
     psi = 0.998*[#   1]
    |psi|^2 = 1.000
==== e(   2) =   -38.96346 eV ==== 
     psi = 0.328*[#   2]+0.328*[#   3]+0.328*[#   4]+0.005*[#   6]+0.005*[#   7]
          +0.005*[#   8]
    |psi|^2 = 1.000
==== e(   3) =   -38.96331 eV ==== 
     psi = 0.515*[#   4]+0.413*[#   2]+0.056*[#   3]+0.008*[#   8]+0.007*[#   6]
          
    |psi|^2 = 1.000
==== e(   4) =   -38.96331 eV ==== 
     psi = 0.600*[#   3]+0.243*[#   2]+0.141*[#   4]+0.009*[#   7]+0.004*[#   6]
          +0.002*[#   8]
    |psi|^2 = 1.000
==== e(   5) =    -8.89790 eV ==== 
     psi = 0.726*[#   9]+0.250*[#   5]+0.007*[#   6]+0.007*[#   7]+0.007*[#   8]
          +0.001*[#   1]
    |psi|^2 = 0.999
==== e(   6) =     1.25411 eV ==== 
     psi = 0.274*[#  10]+0.274*[#  11]+0.274*[#  12]+0.095*[#   5]+0.038*[#   9]
          +0.012*[#   6]+0.012*[#   7]+0.012*[#   8]
    |psi|^2 = 0.991
==== e(   7) =     1.83821 eV ==== 
     psi = 0.620*[#  10]+0.204*[#  11]+0.135*[#  12]+0.021*[#   6]+0.007*[#   7]
          +0.004*[#   8]
    |psi|^2 = 0.990
==== e(   8) =     1.83821 eV ==== 
     psi = 0.504*[#  12]+0.435*[#  11]+0.019*[#  10]+0.017*[#   8]+0.014*[#   7]
          
    |psi|^2 = 0.990
==== e(   9) =     5.18218 eV ==== 
     psi = 0.605*[#   5]+0.228*[#   9]+0.036*[#  10]+0.036*[#  11]+0.036*[#  12]
          +0.016*[#   6]+0.016*[#   7]+0.016*[#   8]
    |psi|^2 = 0.990
==== e(  10) =     9.13528 eV ==== 
     psi = 0.222*[#   6]+0.222*[#   7]+0.222*[#   8]+0.037*[#   5]+0.017*[#  10]
          +0.017*[#  11]+0.017*[#  12]+0.004*[#   2]+0.004*[#   3]+0.004*[#   4]
          
    |psi|^2 = 0.767
==== e(  11) =     9.52167 eV ==== 
     psi = 0.396*[#   8]+0.216*[#   6]+0.140*[#   7]+0.015*[#  12]+0.008*[#  10]
          +0.007*[#   4]+0.005*[#  11]+0.004*[#   2]+0.002*[#   3]
    |psi|^2 = 0.792
==== e(  12) =     9.52167 eV ==== 
     psi = 0.362*[#   7]+0.285*[#   6]+0.105*[#   8]+0.013*[#  11]+0.010*[#  10]
          +0.006*[#   3]+0.005*[#   2]+0.004*[#  12]+0.002*[#   4]
    |psi|^2 = 0.792
==== e(  13) =    11.85476 eV ==== 
     psi = 0.010*[#   6]+0.005*[#   7]+0.001*[#   8]
    |psi|^2 = 0.017
==== e(  14) =    11.85476 eV ==== 
     psi = 0.010*[#   8]+0.006*[#   7]
    |psi|^2 = 0.017
==== e(  15) =    14.09577 eV ==== 
     psi = 0.014*[#   6]+0.014*[#   7]+0.014*[#   8]+0.004*[#   5]
    |psi|^2 = 0.047
==== e(  16) =    15.15816 eV ==== 
     psi = 0.007*[#   6]+0.007*[#   7]+0.007*[#   8]+0.003*[#   9]
    |psi|^2 = 0.024
==== e(  17) =    15.86188 eV ==== 
     psi = 0.021*[#   8]+0.011*[#   6]+0.002*[#   7]+0.001*[#  12]
    |psi|^2 = 0.036
==== e(  18) =    15.86188 eV ==== 
     psi = 0.021*[#   7]+0.011*[#   6]+0.002*[#   8]+0.001*[#  11]
    |psi|^2 = 0.036
==== e(  19) =    18.92933 eV ==== 
     psi = 0.004*[#   6]+0.004*[#   7]+0.004*[#   8]+0.002*[#   9]
    |psi|^2 = 0.017
==== e(  20) =    22.23721 eV ==== 
     psi = 0.025*[#   6]+0.025*[#   7]+0.025*[#   8]+0.003*[#   5]+0.003*[#  10]
          +0.003*[#  11]+0.003*[#  12]
    |psi|^2 = 0.090
==== e(  21) =    22.62472 eV ==== 
     psi = 0.027*[#   8]+0.013*[#   6]+0.012*[#   7]+0.003*[#  12]+0.001*[#  10]
          +0.001*[#  11]
    |psi|^2 = 0.058
==== e(  22) =    22.62472 eV ==== 
     psi = 0.023*[#   7]+0.022*[#   6]+0.007*[#   8]+0.002*[#  11]+0.002*[#  10]
          
    |psi|^2 = 0.058
==== e(  23) =    25.06140 eV ==== 
     psi = 0.020*[#   7]+0.007*[#   6]+0.004*[#   8]
    |psi|^2 = 0.033
==== e(  24) =    25.06140 eV ==== 
     psi = 0.017*[#   8]+0.014*[#   6]
    |psi|^2 = 0.033
==== e(  25) =    26.09113 eV ==== 
     psi = 0.014*[#   7]+0.014*[#   6]+0.002*[#  10]+0.002*[#  11]
    |psi|^2 = 0.032
==== e(  26) =    26.09113 eV ==== 
     psi = 0.018*[#   8]+0.005*[#   6]+0.005*[#   7]+0.002*[#  12]
    |psi|^2 = 0.032
==== e(  27) =    26.67723 eV ==== 
     psi = 0.009*[#   6]+0.009*[#   7]+0.009*[#   8]+0.001*[#   5]
    |psi|^2 = 0.032
==== e(  28) =    30.82252 eV ==== 
 
    |psi|^2 = 0.000
==== e(  29) =    31.66393 eV ==== 
     psi = 0.002*[#   7]+0.001*[#   6]
    |psi|^2 = 0.003
==== e(  30) =    31.66393 eV ==== 
     psi = 0.002*[#   8]
    |psi|^2 = 0.003
==== e(  31) =    32.95307 eV ==== 
     psi = 0.002*[#   6]+0.002*[#   7]+0.002*[#   8]
    |psi|^2 = 0.008
==== e(  32) =    34.67191 eV ==== 
 
    |psi|^2 = 0.003
==== e(  33) =    34.67191 eV ==== 
     psi = 0.001*[#   7]
    |psi|^2 = 0.003

Lowdin Charges: 

     Atom #   1: total charge =   9.5060, s =  2.6046, 
     Atom #   1: total charge =   9.5060, p =  6.9014, pz=  2.3005, px=  2.3005, py=  2.3005, 
     Atom #   2: total charge =   6.4629, s =  1.6695, 
     Atom #   2: total charge =   6.4629, p =  4.7933, pz=  1.5978, px=  1.5978, py=  1.5978, 
     Spilling Parameter:   0.0019
 
     PROJWFC      :      5.64s CPU      7.23s WALL

 
   This run was terminated on:  21: 5: 4  16Apr2020            

=------------------------------------------------------------------------------=
   JOB DONE.
=------------------------------------------------------------------------------=
