
     Program PROJWFC v.6.5 starts on 16Apr2020 at 21:31:24 

     This program is part of the open-source Quantum ESPRESSO suite
     for quantum simulation of materials; please cite
         "P. Giannozzi et al., J. Phys.:Condens. Matter 21 395502 (2009);
         "P. Giannozzi et al., J. Phys.:Condens. Matter 29 465901 (2017);
          URL http://www.quantum-espresso.org", 
     in publications or presentations arising from this work. More details at
     http://www.quantum-espresso.org/quote

     Parallel version (MPI), running on     1 processors

     MPI processes distributed on     1 nodes

     Reading xml data from directory:

     /wrk/kfg/julia_data/MgS/dimer.in_vnscf_coords_4/qe.nscf.save/

     IMPORTANT: XC functional enforced from input :
     Exchange-correlation= PBESOL
                           (   1   4  10   8   0   0   0)
     Any further DFT definition will be discarded
     Please, verify this is what you really want

               file mg.pbesol.UPF: wavefunction(s)  3P renormalized
 
     G-vector sticks info
     --------------------
     sticks:   dense  smooth     PW     G-vecs:    dense   smooth      PW
     Sum        3909    2801    777               261761   159925   23349
 

     negative rho (up, down):  6.127E-05 0.000E+00

     Gaussian broadening (read from file): ngauss,degauss=   0    0.010000


     Calling projwave .... 
 
  Problem Sizes 
  natomwfc =           12
  nbnd     =           33
  nkstot   =           64
  npwx     =        20028
  nkb      =           37
 

     Atomic states used for projection
     (read from pseudopotential files):

     state #   1: atom   1 (Mg ), wfc  1 (l=0 m= 1)
     state #   2: atom   1 (Mg ), wfc  2 (l=1 m= 1)
     state #   3: atom   1 (Mg ), wfc  2 (l=1 m= 2)
     state #   4: atom   1 (Mg ), wfc  2 (l=1 m= 3)
     state #   5: atom   1 (Mg ), wfc  3 (l=0 m= 1)
     state #   6: atom   1 (Mg ), wfc  4 (l=1 m= 1)
     state #   7: atom   1 (Mg ), wfc  4 (l=1 m= 2)
     state #   8: atom   1 (Mg ), wfc  4 (l=1 m= 3)
     state #   9: atom   2 (S  ), wfc  1 (l=0 m= 1)
     state #  10: atom   2 (S  ), wfc  2 (l=1 m= 1)
     state #  11: atom   2 (S  ), wfc  2 (l=1 m= 2)
     state #  12: atom   2 (S  ), wfc  2 (l=1 m= 3)

 k =   0.0000000000  0.0000000000  0.0000000000
==== e(   1) =   -80.23968 eV ==== 
     psi = 0.995*[#   1]+0.004*[#  10]
    |psi|^2 = 1.000
==== e(   2) =   -47.21478 eV ==== 
     psi = 0.984*[#   2]+0.011*[#   6]+0.003*[#  10]+0.002*[#   9]
    |psi|^2 = 1.000
==== e(   3) =   -47.18455 eV ==== 
     psi = 0.858*[#   4]+0.132*[#   3]+0.009*[#   8]+0.001*[#   7]
    |psi|^2 = 1.000
==== e(   4) =   -47.18455 eV ==== 
     psi = 0.858*[#   3]+0.132*[#   4]+0.009*[#   7]+0.001*[#   8]
    |psi|^2 = 1.000
==== e(   5) =   -14.20802 eV ==== 
     psi = 0.842*[#   9]+0.082*[#   6]+0.071*[#   5]+0.003*[#  10]
    |psi|^2 = 0.997
==== e(   6) =    -5.79386 eV ==== 
     psi = 0.626*[#  10]+0.318*[#   5]+0.044*[#   9]+0.002*[#   1]
    |psi|^2 = 0.991
==== e(   7) =    -4.13390 eV ==== 
     psi = 0.530*[#  12]+0.345*[#  11]+0.070*[#   8]+0.046*[#   7]
    |psi|^2 = 0.992
==== e(   8) =    -4.13390 eV ==== 
     psi = 0.530*[#  11]+0.345*[#  12]+0.070*[#   7]+0.046*[#   8]
    |psi|^2 = 0.992
==== e(   9) =    -3.49250 eV ==== 
     psi = 0.440*[#   5]+0.304*[#   6]+0.227*[#  10]
    |psi|^2 = 0.973
==== e(  10) =    -0.29383 eV ==== 
     psi = 0.499*[#   8]+0.200*[#   7]+0.067*[#  12]+0.027*[#  11]+0.006*[#   4]
          +0.002*[#   3]
    |psi|^2 = 0.801
==== e(  11) =    -0.29383 eV ==== 
     psi = 0.499*[#   7]+0.200*[#   8]+0.067*[#  11]+0.027*[#  12]+0.006*[#   3]
          +0.002*[#   4]
    |psi|^2 = 0.801
==== e(  12) =     0.26145 eV ==== 
     psi = 0.084*[#   6]+0.009*[#   9]+0.005*[#   5]+0.001*[#   2]
    |psi|^2 = 0.100
==== e(  13) =     0.53271 eV ==== 
     psi = 0.135*[#   6]+0.078*[#   5]+0.040*[#  10]+0.028*[#   9]+0.004*[#   2]
          
    |psi|^2 = 0.285
==== e(  14) =     1.44854 eV ==== 
     psi = 0.011*[#   6]+0.006*[#   5]+0.004*[#  10]+0.004*[#   9]
    |psi|^2 = 0.025
==== e(  15) =     1.48531 eV ==== 
 
    |psi|^2 = 0.000
==== e(  16) =     2.80898 eV ==== 
     psi = 0.049*[#   8]+0.009*[#  12]+0.004*[#   7]
    |psi|^2 = 0.063
==== e(  17) =     2.80898 eV ==== 
     psi = 0.049*[#   7]+0.009*[#  11]+0.004*[#   8]
    |psi|^2 = 0.063
==== e(  18) =     2.91288 eV ==== 
     psi = 0.058*[#   6]+0.026*[#  10]+0.021*[#   5]+0.013*[#   9]+0.002*[#   2]
          
    |psi|^2 = 0.120
==== e(  19) =     3.12359 eV ==== 
 
    |psi|^2 = 0.000
==== e(  20) =     3.39252 eV ==== 
 
    |psi|^2 = 0.000
==== e(  21) =     3.41510 eV ==== 
     psi = 0.057*[#   6]+0.011*[#   5]+0.009*[#   9]+0.006*[#  10]+0.001*[#   2]
          
    |psi|^2 = 0.084
==== e(  22) =     3.74142 eV ==== 
 
    |psi|^2 = 0.000
==== e(  23) =     3.77573 eV ==== 
     psi = 0.002*[#  11]
    |psi|^2 = 0.004
==== e(  24) =     3.77573 eV ==== 
     psi = 0.002*[#  12]
    |psi|^2 = 0.004
==== e(  25) =     4.31361 eV ==== 
     psi = 0.002*[#   6]+0.001*[#   5]
    |psi|^2 = 0.003
==== e(  26) =     4.33790 eV ==== 
     psi = 0.016*[#   7]+0.006*[#   8]+0.002*[#  11]
    |psi|^2 = 0.025
==== e(  27) =     4.33790 eV ==== 
     psi = 0.016*[#   8]+0.006*[#   7]+0.002*[#  12]
    |psi|^2 = 0.025
==== e(  28) =     4.91989 eV ==== 
     psi = 0.012*[#   6]+0.007*[#   5]+0.003*[#  10]+0.002*[#   9]
    |psi|^2 = 0.025
==== e(  29) =     5.22076 eV ==== 
     psi = 0.007*[#   7]+0.006*[#   8]+0.003*[#  11]+0.003*[#  12]
    |psi|^2 = 0.020
==== e(  30) =     5.22076 eV ==== 
     psi = 0.007*[#   8]+0.006*[#   7]+0.003*[#  12]+0.003*[#  11]
    |psi|^2 = 0.020
==== e(  31) =     5.23962 eV ==== 
     psi = 0.004*[#   6]+0.002*[#   5]+0.001*[#   9]
    |psi|^2 = 0.008
==== e(  32) =     5.35863 eV ==== 
 
    |psi|^2 = 0.000
==== e(  33) =     6.09826 eV ==== 
 
    |psi|^2 = 0.000

 k =   0.0000000000  0.0000000000  0.1750000000
==== e(   1) =   -80.23968 eV ==== 
     psi = 0.995*[#   1]+0.004*[#  10]
    |psi|^2 = 1.000
==== e(   2) =   -47.21478 eV ==== 
     psi = 0.984*[#   2]+0.011*[#   6]+0.003*[#  10]+0.002*[#   9]
    |psi|^2 = 1.000
==== e(   3) =   -47.18455 eV ==== 
     psi = 0.782*[#   4]+0.207*[#   3]+0.008*[#   8]+0.002*[#   7]
    |psi|^2 = 1.000
==== e(   4) =   -47.18455 eV ==== 
     psi = 0.782*[#   3]+0.207*[#   4]+0.008*[#   7]+0.002*[#   8]
    |psi|^2 = 1.000
==== e(   5) =   -14.20802 eV ==== 
     psi = 0.842*[#   9]+0.082*[#   6]+0.070*[#   5]+0.003*[#  10]
    |psi|^2 = 0.997
==== e(   6) =    -5.79470 eV ==== 
     psi = 0.626*[#  10]+0.318*[#   5]+0.044*[#   9]+0.002*[#   1]
    |psi|^2 = 0.991
==== e(   7) =    -4.13384 eV ==== 
     psi = 0.647*[#  11]+0.229*[#  12]+0.086*[#   7]+0.030*[#   8]
    |psi|^2 = 0.992
==== e(   8) =    -4.13384 eV ==== 
     psi = 0.647*[#  12]+0.229*[#  11]+0.086*[#   8]+0.030*[#   7]
    |psi|^2 = 0.992
==== e(   9) =    -3.48660 eV ==== 
     psi = 0.440*[#   5]+0.305*[#   6]+0.228*[#  10]
    |psi|^2 = 0.974
==== e(  10) =    -0.29694 eV ==== 
     psi = 0.358*[#   8]+0.341*[#   7]+0.048*[#  12]+0.045*[#  11]+0.004*[#   4]
          +0.004*[#   3]
    |psi|^2 = 0.800
==== e(  11) =    -0.29694 eV ==== 
     psi = 0.358*[#   7]+0.341*[#   8]+0.048*[#  11]+0.045*[#  12]+0.004*[#   3]
          +0.004*[#   4]
    |psi|^2 = 0.800
==== e(  12) =     0.21279 eV ==== 
     psi = 0.106*[#   6]+0.038*[#   5]+0.019*[#   9]+0.019*[#  10]+0.002*[#   2]
          
    |psi|^2 = 0.184
==== e(  13) =     0.45254 eV ==== 
     psi = 0.097*[#   6]+0.034*[#   5]+0.016*[#  10]+0.015*[#   9]+0.002*[#   2]
          
    |psi|^2 = 0.164
==== e(  14) =     1.50143 eV ==== 
 
    |psi|^2 = 0.000
==== e(  15) =     1.74058 eV ==== 
     psi = 0.027*[#   6]+0.018*[#   5]+0.012*[#  10]+0.006*[#   9]
    |psi|^2 = 0.064
==== e(  16) =     2.70663 eV ==== 
     psi = 0.051*[#   6]+0.018*[#  10]+0.018*[#   5]+0.011*[#   9]+0.001*[#   2]
          
    |psi|^2 = 0.100
==== e(  17) =     2.89099 eV ==== 
     psi = 0.055*[#   8]+0.011*[#  12]
    |psi|^2 = 0.067
==== e(  18) =     2.89099 eV ==== 
     psi = 0.055*[#   7]+0.011*[#  11]
    |psi|^2 = 0.067
==== e(  19) =     3.08314 eV ==== 
 
    |psi|^2 = 0.000
==== e(  20) =     3.13005 eV ==== 
 
    |psi|^2 = 0.000
==== e(  21) =     3.69371 eV ==== 
     psi = 0.032*[#   6]+0.010*[#   5]+0.007*[#  10]+0.005*[#   9]
    |psi|^2 = 0.054
==== e(  22) =     3.69591 eV ==== 
     psi = 0.011*[#   8]+0.003*[#  12]
    |psi|^2 = 0.014
==== e(  23) =     3.69591 eV ==== 
     psi = 0.011*[#   7]+0.003*[#  11]
    |psi|^2 = 0.014
==== e(  24) =     3.95277 eV ==== 
     psi = 0.037*[#   6]+0.008*[#   5]+0.007*[#   9]+0.003*[#  10]
    |psi|^2 = 0.056
==== e(  25) =     4.21683 eV ==== 
     psi = 0.008*[#   7]+0.003*[#   8]+0.002*[#  11]
    |psi|^2 = 0.014
==== e(  26) =     4.21683 eV ==== 
     psi = 0.008*[#   8]+0.003*[#   7]+0.002*[#  12]
    |psi|^2 = 0.014
==== e(  27) =     4.27485 eV ==== 
 
    |psi|^2 = 0.000
==== e(  28) =     4.71553 eV ==== 
     psi = 0.017*[#   6]+0.008*[#  10]+0.005*[#   5]+0.005*[#   9]
    |psi|^2 = 0.036
==== e(  29) =     5.19099 eV ==== 
 
    |psi|^2 = 0.000
==== e(  30) =     5.45323 eV ==== 
     psi = 0.007*[#   7]+0.003*[#  11]+0.002*[#   8]
    |psi|^2 = 0.013
==== e(  31) =     5.45323 eV ==== 
     psi = 0.007*[#   8]+0.003*[#  12]+0.002*[#   7]
    |psi|^2 = 0.013
==== e(  32) =     5.48262 eV ==== 
     psi = 0.014*[#   6]+0.006*[#  10]+0.003*[#   9]+0.002*[#   5]
    |psi|^2 = 0.026
==== e(  33) =     6.00015 eV ==== 
     psi = 0.004*[#   8]
    |psi|^2 = 0.005

 k =   0.0000000000  0.0000000000 -0.3500000000
==== e(   1) =   -80.23968 eV ==== 
     psi = 0.995*[#   1]+0.004*[#  10]
    |psi|^2 = 1.000
==== e(   2) =   -47.21478 eV ==== 
     psi = 0.984*[#   2]+0.011*[#   6]+0.003*[#  10]+0.002*[#   9]
    |psi|^2 = 1.000
==== e(   3) =   -47.18455 eV ==== 
     psi = 0.988*[#   4]+0.010*[#   8]+0.001*[#   3]
    |psi|^2 = 1.000
==== e(   4) =   -47.18455 eV ==== 
     psi = 0.988*[#   3]+0.010*[#   7]+0.001*[#   4]
    |psi|^2 = 1.000
==== e(   5) =   -14.20802 eV ==== 
     psi = 0.842*[#   9]+0.082*[#   6]+0.070*[#   5]+0.003*[#  10]
    |psi|^2 = 0.997
==== e(   6) =    -5.79554 eV ==== 
     psi = 0.626*[#  10]+0.318*[#   5]+0.044*[#   9]+0.002*[#   1]
    |psi|^2 = 0.991
==== e(   7) =    -4.13377 eV ==== 
     psi = 0.872*[#  12]+0.115*[#   8]+0.004*[#  11]
    |psi|^2 = 0.992
==== e(   8) =    -4.13377 eV ==== 
     psi = 0.872*[#  11]+0.115*[#   7]+0.004*[#  12]
    |psi|^2 = 0.992
==== e(   9) =    -3.48065 eV ==== 
     psi = 0.440*[#   5]+0.306*[#   6]+0.228*[#  10]
    |psi|^2 = 0.976
==== e(  10) =    -0.30002 eV ==== 
     psi = 0.511*[#   7]+0.186*[#   8]+0.068*[#  11]+0.025*[#  12]+0.006*[#   3]
          +0.002*[#   4]
    |psi|^2 = 0.798
==== e(  11) =    -0.30002 eV ==== 
     psi = 0.511*[#   8]+0.186*[#   7]+0.068*[#  12]+0.025*[#  11]+0.006*[#   4]
          +0.002*[#   3]
    |psi|^2 = 0.798
==== e(  12) =     0.14793 eV ==== 
     psi = 0.119*[#   6]+0.061*[#   5]+0.031*[#  10]+0.026*[#   9]+0.003*[#   2]
          
    |psi|^2 = 0.241
==== e(  13) =     0.42378 eV ==== 
     psi = 0.076*[#   6]+0.007*[#   9]+0.005*[#   5]+0.001*[#   2]
    |psi|^2 = 0.091
==== e(  14) =     1.51863 eV ==== 
 
    |psi|^2 = 0.000
==== e(  15) =     2.03647 eV ==== 
     psi = 0.047*[#   6]+0.027*[#   5]+0.023*[#  10]+0.010*[#   9]+0.001*[#   2]
          
    |psi|^2 = 0.108
==== e(  16) =     2.67210 eV ==== 
     psi = 0.014*[#   6]+0.010*[#   5]+0.002*[#   9]+0.002*[#  10]
    |psi|^2 = 0.029
==== e(  17) =     2.92476 eV ==== 
 
    |psi|^2 = 0.000
==== e(  18) =     3.00497 eV ==== 
     psi = 0.061*[#   8]+0.013*[#  12]
    |psi|^2 = 0.075
==== e(  19) =     3.00497 eV ==== 
     psi = 0.061*[#   7]+0.013*[#  11]
    |psi|^2 = 0.075
==== e(  20) =     3.13666 eV ==== 
 
    |psi|^2 = 0.000
==== e(  21) =     3.32866 eV ==== 
     psi = 0.047*[#   6]+0.014*[#   5]+0.012*[#  10]+0.012*[#   9]+0.001*[#   2]
          
    |psi|^2 = 0.086
==== e(  22) =     3.55547 eV ==== 
     psi = 0.013*[#   8]+0.004*[#   7]+0.001*[#  12]
    |psi|^2 = 0.018
==== e(  23) =     3.55547 eV ==== 
     psi = 0.013*[#   7]+0.004*[#   8]+0.001*[#  11]
    |psi|^2 = 0.018
==== e(  24) =     4.02951 eV ==== 
     psi = 0.040*[#   6]+0.007*[#   5]+0.005*[#   9]+0.003*[#  10]
    |psi|^2 = 0.056
==== e(  25) =     4.17430 eV ==== 
     psi = 0.003*[#  11]+0.001*[#   7]
    |psi|^2 = 0.005
==== e(  26) =     4.17430 eV ==== 
     psi = 0.003*[#  12]+0.001*[#   8]
    |psi|^2 = 0.005
==== e(  27) =     4.85568 eV ==== 
     psi = 0.015*[#   6]+0.010*[#  10]+0.005*[#   5]+0.003*[#   9]
    |psi|^2 = 0.035
==== e(  28) =     5.07884 eV ==== 
 
    |psi|^2 = 0.000
==== e(  29) =     5.08944 eV ==== 
 
    |psi|^2 = 0.000
==== e(  30) =     5.17901 eV ==== 
 
    |psi|^2 = 0.000
==== e(  31) =     5.47271 eV ==== 
 
    |psi|^2 = 0.000
==== e(  32) =     5.47271 eV ==== 
 
    |psi|^2 = 0.000
==== e(  33) =     5.59425 eV ==== 
     psi = 0.045*[#   6]+0.011*[#   5]+0.009*[#  10]+0.009*[#   9]+0.001*[#   2]
          
    |psi|^2 = 0.075

 k =   0.0000000000  0.0000000000 -0.1750000000
==== e(   1) =   -80.23968 eV ==== 
     psi = 0.995*[#   1]+0.004*[#  10]
    |psi|^2 = 1.000
==== e(   2) =   -47.21478 eV ==== 
     psi = 0.984*[#   2]+0.011*[#   6]+0.003*[#  10]+0.002*[#   9]
    |psi|^2 = 1.000
==== e(   3) =   -47.18455 eV ==== 
     psi = 0.821*[#   4]+0.169*[#   3]+0.008*[#   8]+0.002*[#   7]
    |psi|^2 = 1.000
==== e(   4) =   -47.18455 eV ==== 
     psi = 0.821*[#   3]+0.169*[#   4]+0.008*[#   7]+0.002*[#   8]
    |psi|^2 = 1.000
==== e(   5) =   -14.20802 eV ==== 
     psi = 0.842*[#   9]+0.082*[#   6]+0.070*[#   5]+0.003*[#  10]
    |psi|^2 = 0.997
==== e(   6) =    -5.79470 eV ==== 
     psi = 0.626*[#  10]+0.318*[#   5]+0.044*[#   9]+0.002*[#   1]
    |psi|^2 = 0.991
==== e(   7) =    -4.13384 eV ==== 
     psi = 0.573*[#  11]+0.303*[#  12]+0.076*[#   7]+0.040*[#   8]
    |psi|^2 = 0.992
==== e(   8) =    -4.13384 eV ==== 
     psi = 0.573*[#  12]+0.303*[#  11]+0.076*[#   8]+0.040*[#   7]
    |psi|^2 = 0.992
==== e(   9) =    -3.48660 eV ==== 
     psi = 0.440*[#   5]+0.305*[#   6]+0.228*[#  10]
    |psi|^2 = 0.974
==== e(  10) =    -0.29694 eV ==== 
     psi = 0.528*[#   8]+0.170*[#   7]+0.071*[#  12]+0.023*[#  11]+0.006*[#   4]
          +0.002*[#   3]
    |psi|^2 = 0.800
==== e(  11) =    -0.29694 eV ==== 
     psi = 0.528*[#   7]+0.170*[#   8]+0.071*[#  11]+0.023*[#  12]+0.006*[#   3]
          +0.002*[#   4]
    |psi|^2 = 0.800
==== e(  12) =     0.21279 eV ==== 
     psi = 0.106*[#   6]+0.038*[#   5]+0.019*[#   9]+0.019*[#  10]+0.002*[#   2]
          
    |psi|^2 = 0.184
==== e(  13) =     0.45254 eV ==== 
     psi = 0.097*[#   6]+0.034*[#   5]+0.016*[#  10]+0.015*[#   9]+0.002*[#   2]
          
    |psi|^2 = 0.164
==== e(  14) =     1.50143 eV ==== 
 
    |psi|^2 = 0.000
==== e(  15) =     1.74058 eV ==== 
     psi = 0.027*[#   6]+0.018*[#   5]+0.012*[#  10]+0.006*[#   9]
    |psi|^2 = 0.064
==== e(  16) =     2.70663 eV ==== 
     psi = 0.051*[#   6]+0.018*[#  10]+0.018*[#   5]+0.011*[#   9]+0.001*[#   2]
          
    |psi|^2 = 0.100
==== e(  17) =     2.89099 eV ==== 
     psi = 0.052*[#   8]+0.010*[#  12]+0.004*[#   7]
    |psi|^2 = 0.067
==== e(  18) =     2.89099 eV ==== 
     psi = 0.052*[#   7]+0.010*[#  11]+0.004*[#   8]
    |psi|^2 = 0.067
==== e(  19) =     3.08314 eV ==== 
 
    |psi|^2 = 0.000
==== e(  20) =     3.13005 eV ==== 
 
    |psi|^2 = 0.000
==== e(  21) =     3.69371 eV ==== 
     psi = 0.032*[#   6]+0.010*[#   5]+0.007*[#  10]+0.005*[#   9]
    |psi|^2 = 0.054
==== e(  22) =     3.69591 eV ==== 
     psi = 0.011*[#   7]+0.003*[#  11]
    |psi|^2 = 0.014
==== e(  23) =     3.69591 eV ==== 
     psi = 0.011*[#   8]+0.003*[#  12]
    |psi|^2 = 0.014
==== e(  24) =     3.95277 eV ==== 
     psi = 0.037*[#   6]+0.008*[#   5]+0.007*[#   9]+0.003*[#  10]
    |psi|^2 = 0.056
==== e(  25) =     4.21683 eV ==== 
     psi = 0.010*[#   8]+0.003*[#  12]
    |psi|^2 = 0.014
==== e(  26) =     4.21683 eV ==== 
     psi = 0.010*[#   7]+0.003*[#  11]
    |psi|^2 = 0.014
==== e(  27) =     4.27485 eV ==== 
 
    |psi|^2 = 0.000
==== e(  28) =     4.71553 eV ==== 
     psi = 0.017*[#   6]+0.008*[#  10]+0.005*[#   5]+0.005*[#   9]
    |psi|^2 = 0.036
==== e(  29) =     5.19099 eV ==== 
 
    |psi|^2 = 0.000
==== e(  30) =     5.45323 eV ==== 
     psi = 0.008*[#   7]+0.004*[#  11]
    |psi|^2 = 0.013
==== e(  31) =     5.45323 eV ==== 
     psi = 0.008*[#   8]+0.004*[#  12]
    |psi|^2 = 0.013
==== e(  32) =     5.48262 eV ==== 
     psi = 0.014*[#   6]+0.006*[#  10]+0.003*[#   9]+0.002*[#   5]
    |psi|^2 = 0.026
==== e(  33) =     6.00015 eV ==== 
     psi = 0.003*[#   7]+0.002*[#   8]
    |psi|^2 = 0.005

 k =   0.0000000000  0.2500000000  0.0000000000
==== e(   1) =   -80.23968 eV ==== 
     psi = 0.995*[#   1]+0.004*[#  10]
    |psi|^2 = 1.000
==== e(   2) =   -47.21478 eV ==== 
     psi = 0.984*[#   2]+0.011*[#   6]+0.003*[#  10]+0.002*[#   9]
    |psi|^2 = 1.000
==== e(   3) =   -47.18455 eV ==== 
     psi = 0.989*[#   3]+0.010*[#   7]
    |psi|^2 = 1.000
==== e(   4) =   -47.18455 eV ==== 
     psi = 0.989*[#   4]+0.010*[#   8]
    |psi|^2 = 1.000
==== e(   5) =   -14.20795 eV ==== 
     psi = 0.841*[#   9]+0.082*[#   6]+0.071*[#   5]+0.003*[#  10]
    |psi|^2 = 0.997
==== e(   6) =    -5.79060 eV ==== 
     psi = 0.628*[#  10]+0.316*[#   5]+0.044*[#   9]+0.002*[#   1]
    |psi|^2 = 0.991
==== e(   7) =    -4.14850 eV ==== 
     psi = 0.869*[#  12]+0.121*[#   8]
    |psi|^2 = 0.991
==== e(   8) =    -4.13265 eV ==== 
     psi = 0.876*[#  11]+0.116*[#   7]
    |psi|^2 = 0.992
==== e(   9) =    -3.47059 eV ==== 
     psi = 0.441*[#   5]+0.308*[#   6]+0.225*[#  10]
    |psi|^2 = 0.976
==== e(  10) =    -0.63622 eV ==== 
     psi = 0.572*[#   8]+0.085*[#  12]+0.007*[#   4]+0.004*[#   6]
    |psi|^2 = 0.669
==== e(  11) =    -0.26444 eV ==== 
     psi = 0.707*[#   7]+0.094*[#  11]+0.008*[#   3]
    |psi|^2 = 0.809
==== e(  12) =     0.58090 eV ==== 
     psi = 0.062*[#   8]+0.042*[#   6]+0.007*[#  12]+0.004*[#   9]+0.001*[#   5]
          
    |psi|^2 = 0.117
==== e(  13) =     0.67279 eV ==== 
     psi = 0.176*[#   6]+0.086*[#   5]+0.043*[#  10]+0.035*[#   9]+0.004*[#   2]
          
    |psi|^2 = 0.345
==== e(  14) =     1.55933 eV ==== 
     psi = 0.018*[#   8]+0.003*[#   5]+0.003*[#   6]+0.003*[#  10]+0.001*[#   9]
          +0.001*[#  12]
    |psi|^2 = 0.030
==== e(  15) =     1.75016 eV ==== 
     psi = 0.073*[#   8]+0.010*[#  12]+0.006*[#   6]+0.002*[#   9]+0.002*[#   5]
          +0.001*[#  10]
    |psi|^2 = 0.094
==== e(  16) =     2.25656 eV ==== 
     psi = 0.004*[#  10]+0.003*[#   5]+0.002*[#   6]
    |psi|^2 = 0.011
==== e(  17) =     2.48134 eV ==== 
     psi = 0.013*[#   7]+0.002*[#  11]
    |psi|^2 = 0.015
==== e(  18) =     2.59749 eV ==== 
     psi = 0.059*[#   6]+0.016*[#   5]+0.010*[#   9]+0.010*[#  10]+0.002*[#   8]
          +0.001*[#   2]+0.001*[#  12]
    |psi|^2 = 0.101
==== e(  19) =     3.07679 eV ==== 
     psi = 0.035*[#   7]+0.008*[#  11]
    |psi|^2 = 0.044
==== e(  20) =     3.18974 eV ==== 
     psi = 0.010*[#   8]+0.001*[#  12]
    |psi|^2 = 0.012
==== e(  21) =     3.24101 eV ==== 
     psi = 0.016*[#   6]+0.010*[#  10]+0.007*[#   8]+0.006*[#   5]+0.004*[#   9]
          +0.002*[#  12]
    |psi|^2 = 0.046
==== e(  22) =     3.83957 eV ==== 
     psi = 0.023*[#   6]+0.005*[#  10]+0.005*[#   9]+0.004*[#   5]+0.004*[#   8]
          
    |psi|^2 = 0.042
==== e(  23) =     4.14304 eV ==== 
     psi = 0.006*[#   7]+0.003*[#  11]
    |psi|^2 = 0.009
==== e(  24) =     4.19663 eV ==== 
     psi = 0.023*[#   8]+0.007*[#  12]
    |psi|^2 = 0.032
==== e(  25) =     4.49789 eV ==== 
     psi = 0.002*[#   8]
    |psi|^2 = 0.004
==== e(  26) =     4.51076 eV ==== 
     psi = 0.002*[#  11]+0.002*[#   7]
    |psi|^2 = 0.003
==== e(  27) =     4.76352 eV ==== 
     psi = 0.028*[#   6]+0.010*[#   5]+0.004*[#   9]+0.004*[#  10]
    |psi|^2 = 0.046
==== e(  28) =     4.96022 eV ==== 
     psi = 0.011*[#   7]+0.001*[#  11]
    |psi|^2 = 0.013
==== e(  29) =     5.15054 eV ==== 
 
    |psi|^2 = 0.002
==== e(  30) =     5.24720 eV ==== 
     psi = 0.015*[#   7]+0.003*[#  11]
    |psi|^2 = 0.018
==== e(  31) =     5.30222 eV ==== 
     psi = 0.002*[#   5]+0.002*[#   6]
    |psi|^2 = 0.006
==== e(  32) =     5.58098 eV ==== 
     psi = 0.013*[#   6]+0.004*[#   5]+0.002*[#   9]+0.001*[#  10]
    |psi|^2 = 0.021
==== e(  33) =     5.65953 eV ==== 
     psi = 0.010*[#   8]+0.001*[#   6]
    |psi|^2 = 0.012

 k =   0.0000000000  0.2500000000  0.1750000000
==== e(   1) =   -80.23968 eV ==== 
     psi = 0.995*[#   1]+0.004*[#  10]
    |psi|^2 = 1.000
==== e(   2) =   -47.21478 eV ==== 
     psi = 0.984*[#   2]+0.011*[#   6]+0.003*[#  10]+0.002*[#   9]
    |psi|^2 = 1.000
==== e(   3) =   -47.18455 eV ==== 
     psi = 0.989*[#   3]+0.010*[#   7]
    |psi|^2 = 1.000
==== e(   4) =   -47.18455 eV ==== 
     psi = 0.989*[#   4]+0.010*[#   8]
    |psi|^2 = 1.000
==== e(   5) =   -14.20795 eV ==== 
     psi = 0.841*[#   9]+0.082*[#   6]+0.071*[#   5]+0.003*[#  10]
    |psi|^2 = 0.997
==== e(   6) =    -5.79141 eV ==== 
     psi = 0.628*[#  10]+0.316*[#   5]+0.044*[#   9]+0.002*[#   1]
    |psi|^2 = 0.991
==== e(   7) =    -4.14839 eV ==== 
     psi = 0.870*[#  12]+0.121*[#   8]
    |psi|^2 = 0.991
==== e(   8) =    -4.13259 eV ==== 
     psi = 0.876*[#  11]+0.116*[#   7]
    |psi|^2 = 0.992
==== e(   9) =    -3.46501 eV ==== 
     psi = 0.440*[#   5]+0.309*[#   6]+0.225*[#  10]
    |psi|^2 = 0.977
==== e(  10) =    -0.63882 eV ==== 
     psi = 0.574*[#   8]+0.085*[#  12]+0.007*[#   4]+0.004*[#   6]
    |psi|^2 = 0.669
==== e(  11) =    -0.26742 eV ==== 
     psi = 0.706*[#   7]+0.094*[#  11]+0.008*[#   3]
    |psi|^2 = 0.808
==== e(  12) =     0.40928 eV ==== 
     psi = 0.118*[#   6]+0.055*[#   5]+0.029*[#  10]+0.024*[#   9]+0.012*[#   8]
          +0.003*[#   2]+0.002*[#  12]
    |psi|^2 = 0.243
==== e(  13) =     0.75757 eV ==== 
     psi = 0.083*[#   6]+0.052*[#   8]+0.021*[#   5]+0.012*[#   9]+0.009*[#  10]
          +0.006*[#  12]+0.002*[#   2]
    |psi|^2 = 0.184
==== e(  14) =     1.63648 eV ==== 
     psi = 0.046*[#   8]+0.008*[#   6]+0.005*[#   5]+0.005*[#  12]+0.004*[#  10]
          +0.002*[#   9]
    |psi|^2 = 0.071
==== e(  15) =     1.91571 eV ==== 
     psi = 0.046*[#   8]+0.013*[#   6]+0.009*[#   5]+0.007*[#  12]+0.007*[#  10]
          +0.003*[#   9]
    |psi|^2 = 0.086
==== e(  16) =     2.11538 eV ==== 
     psi = 0.022*[#   6]+0.008*[#   5]+0.005*[#  10]+0.005*[#   9]
    |psi|^2 = 0.042
==== e(  17) =     2.50815 eV ==== 
     psi = 0.012*[#   7]+0.001*[#  11]
    |psi|^2 = 0.013
==== e(  18) =     2.78985 eV ==== 
     psi = 0.037*[#   6]+0.008*[#   5]+0.006*[#   9]+0.004*[#   8]+0.004*[#  10]
          
    |psi|^2 = 0.062
==== e(  19) =     3.00841 eV ==== 
     psi = 0.014*[#   6]+0.009*[#  10]+0.006*[#   5]+0.004*[#   9]+0.002*[#   8]
          
    |psi|^2 = 0.035
==== e(  20) =     3.12155 eV ==== 
     psi = 0.039*[#   7]+0.009*[#  11]
    |psi|^2 = 0.049
==== e(  21) =     3.32215 eV ==== 
     psi = 0.010*[#   8]+0.003*[#  12]
    |psi|^2 = 0.014
==== e(  22) =     3.80367 eV ==== 
     psi = 0.005*[#   8]+0.003*[#   6]+0.003*[#   5]+0.001*[#  12]+0.001*[#  10]
          
    |psi|^2 = 0.014
==== e(  23) =     3.98563 eV ==== 
     psi = 0.012*[#   7]+0.004*[#  11]
    |psi|^2 = 0.016
==== e(  24) =     4.25276 eV ==== 
     psi = 0.019*[#   6]+0.012*[#   8]+0.006*[#   5]+0.004*[#  10]+0.003*[#   9]
          +0.003*[#  12]
    |psi|^2 = 0.047
==== e(  25) =     4.42606 eV ==== 
     psi = 0.007*[#   6]+0.005*[#   8]+0.003*[#  10]+0.002*[#   5]+0.002*[#  12]
          +0.002*[#   9]
    |psi|^2 = 0.021
==== e(  26) =     4.46013 eV ==== 
     psi = 0.002*[#   7]+0.001*[#  11]
    |psi|^2 = 0.003
==== e(  27) =     4.69113 eV ==== 
     psi = 0.042*[#   6]+0.009*[#  10]+0.009*[#   5]+0.009*[#   9]+0.005*[#   8]
          
    |psi|^2 = 0.076
==== e(  28) =     4.90406 eV ==== 
     psi = 0.006*[#   6]+0.002*[#   5]+0.001*[#  10]+0.001*[#   9]
    |psi|^2 = 0.010
==== e(  29) =     4.94159 eV ==== 
     psi = 0.011*[#   7]+0.002*[#  11]
    |psi|^2 = 0.013
==== e(  30) =     5.18388 eV ==== 
     psi = 0.009*[#   6]+0.006*[#   8]+0.002*[#   5]+0.001*[#   9]+0.001*[#  10]
          
    |psi|^2 = 0.020
==== e(  31) =     5.34725 eV ==== 
     psi = 0.004*[#   7]
    |psi|^2 = 0.005
==== e(  32) =     5.46064 eV ==== 
     psi = 0.004*[#   6]+0.001*[#   8]
    |psi|^2 = 0.008
==== e(  33) =     5.74610 eV ==== 
     psi = 0.002*[#   8]
    |psi|^2 = 0.004

 k =   0.0000000000  0.2500000000 -0.3500000000
==== e(   1) =   -80.23968 eV ==== 
     psi = 0.995*[#   1]+0.004*[#  10]
    |psi|^2 = 1.000
==== e(   2) =   -47.21478 eV ==== 
     psi = 0.984*[#   2]+0.011*[#   6]+0.003*[#  10]+0.002*[#   9]
    |psi|^2 = 1.000
==== e(   3) =   -47.18455 eV ==== 
     psi = 0.989*[#   3]+0.010*[#   7]
    |psi|^2 = 1.000
==== e(   4) =   -47.18455 eV ==== 
     psi = 0.989*[#   4]+0.010*[#   8]
    |psi|^2 = 1.000
==== e(   5) =   -14.20795 eV ==== 
     psi = 0.841*[#   9]+0.082*[#   6]+0.071*[#   5]+0.003*[#  10]
    |psi|^2 = 0.997
==== e(   6) =    -5.79222 eV ==== 
     psi = 0.628*[#  10]+0.316*[#   5]+0.044*[#   9]+0.002*[#   1]
    |psi|^2 = 0.991
==== e(   7) =    -4.14828 eV ==== 
     psi = 0.870*[#  12]+0.121*[#   8]
    |psi|^2 = 0.991
==== e(   8) =    -4.13253 eV ==== 
     psi = 0.876*[#  11]+0.116*[#   7]
    |psi|^2 = 0.992
==== e(   9) =    -3.45939 eV ==== 
     psi = 0.440*[#   5]+0.310*[#   6]+0.226*[#  10]
    |psi|^2 = 0.978
==== e(  10) =    -0.64141 eV ==== 
     psi = 0.575*[#   8]+0.084*[#  12]+0.007*[#   4]+0.003*[#   6]
    |psi|^2 = 0.670
==== e(  11) =    -0.27039 eV ==== 
     psi = 0.705*[#   7]+0.093*[#  11]+0.008*[#   3]
    |psi|^2 = 0.807
==== e(  12) =     0.30690 eV ==== 
     psi = 0.128*[#   6]+0.064*[#   5]+0.033*[#  10]+0.028*[#   9]+0.003*[#   2]
          +0.003*[#   8]
    |psi|^2 = 0.260
==== e(  13) =     0.79108 eV ==== 
     psi = 0.063*[#   6]+0.060*[#   8]+0.007*[#   5]+0.006*[#   9]+0.007*[#  12]
          +0.001*[#   2]
    |psi|^2 = 0.145
==== e(  14) =     1.75676 eV ==== 
     psi = 0.075*[#   8]+0.014*[#   6]+0.011*[#  12]+0.008*[#   5]+0.006*[#  10]
          +0.003*[#   9]
    |psi|^2 = 0.119
==== e(  15) =     1.80388 eV ==== 
     psi = 0.014*[#   6]+0.012*[#   8]+0.008*[#   5]+0.007*[#  10]+0.003*[#   9]
          
    |psi|^2 = 0.044
==== e(  16) =     2.35457 eV ==== 
     psi = 0.032*[#   6]+0.016*[#   5]+0.010*[#  10]+0.009*[#   8]+0.005*[#   9]
          +0.002*[#  12]
    |psi|^2 = 0.076
==== e(  17) =     2.53694 eV ==== 
     psi = 0.010*[#   7]+0.001*[#  11]
    |psi|^2 = 0.011
==== e(  18) =     2.74844 eV ==== 
     psi = 0.015*[#   6]+0.005*[#   8]+0.005*[#   5]+0.002*[#   9]
    |psi|^2 = 0.029
==== e(  19) =     3.06985 eV ==== 
     psi = 0.003*[#   6]+0.001*[#   8]
    |psi|^2 = 0.005
==== e(  20) =     3.16738 eV ==== 
     psi = 0.043*[#   7]+0.010*[#  11]
    |psi|^2 = 0.053
==== e(  21) =     3.39015 eV ==== 
     psi = 0.027*[#   6]+0.011*[#   5]+0.008*[#  10]+0.007*[#   9]
    |psi|^2 = 0.054
==== e(  22) =     3.47343 eV ==== 
     psi = 0.014*[#   8]+0.005*[#  12]
    |psi|^2 = 0.019
==== e(  23) =     3.89964 eV ==== 
     psi = 0.020*[#   7]+0.006*[#  11]
    |psi|^2 = 0.025
==== e(  24) =     4.26398 eV ==== 
     psi = 0.018*[#   6]+0.006*[#   5]+0.004*[#  10]+0.004*[#   9]+0.001*[#   8]
          
    |psi|^2 = 0.032
==== e(  25) =     4.33803 eV ==== 
     psi = 0.011*[#   6]+0.006*[#  10]+0.006*[#   8]+0.003*[#   9]+0.002*[#   5]
          +0.002*[#  12]
    |psi|^2 = 0.031
==== e(  26) =     4.34174 eV ==== 
 
    |psi|^2 = 0.000
==== e(  27) =     4.68363 eV ==== 
     psi = 0.023*[#   6]+0.006*[#   5]+0.006*[#  10]+0.004*[#   9]+0.002*[#   8]
          
    |psi|^2 = 0.042
==== e(  28) =     4.81337 eV ==== 
     psi = 0.002*[#   7]
    |psi|^2 = 0.002
==== e(  29) =     5.09946 eV ==== 
     psi = 0.036*[#   6]+0.007*[#   5]+0.006*[#  10]+0.006*[#   9]
    |psi|^2 = 0.056
==== e(  30) =     5.16710 eV ==== 
     psi = 0.021*[#   8]+0.007*[#   6]+0.003*[#  12]+0.001*[#   9]
    |psi|^2 = 0.034
==== e(  31) =     5.52960 eV ==== 
     psi = 0.010*[#   6]+0.004*[#   8]+0.002*[#   9]+0.001*[#   5]+0.001*[#  10]
          
    |psi|^2 = 0.020
==== e(  32) =     5.66096 eV ==== 
 
    |psi|^2 = 0.002
==== e(  33) =     5.91399 eV ==== 
     psi = 0.005*[#   7]+0.002*[#  11]
    |psi|^2 = 0.006

 k =   0.0000000000  0.2500000000 -0.1750000000
==== e(   1) =   -80.23968 eV ==== 
     psi = 0.995*[#   1]+0.004*[#  10]
    |psi|^2 = 1.000
==== e(   2) =   -47.21478 eV ==== 
     psi = 0.984*[#   2]+0.011*[#   6]+0.003*[#  10]+0.002*[#   9]
    |psi|^2 = 1.000
==== e(   3) =   -47.18455 eV ==== 
     psi = 0.989*[#   3]+0.010*[#   7]
    |psi|^2 = 1.000
==== e(   4) =   -47.18455 eV ==== 
     psi = 0.989*[#   4]+0.010*[#   8]
    |psi|^2 = 1.000
==== e(   5) =   -14.20795 eV ==== 
     psi = 0.841*[#   9]+0.082*[#   6]+0.071*[#   5]+0.003*[#  10]
    |psi|^2 = 0.997
==== e(   6) =    -5.79141 eV ==== 
     psi = 0.628*[#  10]+0.316*[#   5]+0.044*[#   9]+0.002*[#   1]
    |psi|^2 = 0.991
==== e(   7) =    -4.14839 eV ==== 
     psi = 0.870*[#  12]+0.121*[#   8]
    |psi|^2 = 0.991
==== e(   8) =    -4.13259 eV ==== 
     psi = 0.876*[#  11]+0.116*[#   7]
    |psi|^2 = 0.992
==== e(   9) =    -3.46501 eV ==== 
     psi = 0.440*[#   5]+0.309*[#   6]+0.225*[#  10]
    |psi|^2 = 0.977
==== e(  10) =    -0.63882 eV ==== 
     psi = 0.574*[#   8]+0.085*[#  12]+0.007*[#   4]+0.004*[#   6]
    |psi|^2 = 0.669
==== e(  11) =    -0.26742 eV ==== 
     psi = 0.706*[#   7]+0.094*[#  11]+0.008*[#   3]
    |psi|^2 = 0.808
==== e(  12) =     0.40928 eV ==== 
     psi = 0.118*[#   6]+0.055*[#   5]+0.029*[#  10]+0.024*[#   9]+0.012*[#   8]
          +0.003*[#   2]+0.002*[#  12]
    |psi|^2 = 0.243
==== e(  13) =     0.75757 eV ==== 
     psi = 0.083*[#   6]+0.052*[#   8]+0.021*[#   5]+0.012*[#   9]+0.009*[#  10]
          +0.006*[#  12]+0.002*[#   2]
    |psi|^2 = 0.184
==== e(  14) =     1.63648 eV ==== 
     psi = 0.046*[#   8]+0.008*[#   6]+0.005*[#   5]+0.005*[#  12]+0.004*[#  10]
          +0.002*[#   9]
    |psi|^2 = 0.071
==== e(  15) =     1.91571 eV ==== 
     psi = 0.046*[#   8]+0.013*[#   6]+0.009*[#   5]+0.007*[#  12]+0.007*[#  10]
          +0.003*[#   9]
    |psi|^2 = 0.086
==== e(  16) =     2.11538 eV ==== 
     psi = 0.022*[#   6]+0.008*[#   5]+0.005*[#  10]+0.005*[#   9]
    |psi|^2 = 0.042
==== e(  17) =     2.50815 eV ==== 
     psi = 0.012*[#   7]+0.001*[#  11]
    |psi|^2 = 0.013
==== e(  18) =     2.78985 eV ==== 
     psi = 0.037*[#   6]+0.008*[#   5]+0.006*[#   9]+0.004*[#   8]+0.004*[#  10]
          
    |psi|^2 = 0.062
==== e(  19) =     3.00841 eV ==== 
     psi = 0.014*[#   6]+0.009*[#  10]+0.006*[#   5]+0.004*[#   9]+0.002*[#   8]
          
    |psi|^2 = 0.035
==== e(  20) =     3.12155 eV ==== 
     psi = 0.039*[#   7]+0.009*[#  11]
    |psi|^2 = 0.049
==== e(  21) =     3.32215 eV ==== 
     psi = 0.010*[#   8]+0.003*[#  12]
    |psi|^2 = 0.014
==== e(  22) =     3.80367 eV ==== 
     psi = 0.005*[#   8]+0.003*[#   6]+0.003*[#   5]+0.001*[#  12]+0.001*[#  10]
          
    |psi|^2 = 0.014
==== e(  23) =     3.98563 eV ==== 
     psi = 0.012*[#   7]+0.004*[#  11]
    |psi|^2 = 0.016
==== e(  24) =     4.25276 eV ==== 
     psi = 0.019*[#   6]+0.012*[#   8]+0.006*[#   5]+0.004*[#  10]+0.003*[#   9]
          +0.003*[#  12]
    |psi|^2 = 0.047
==== e(  25) =     4.42606 eV ==== 
     psi = 0.007*[#   6]+0.005*[#   8]+0.003*[#  10]+0.002*[#   5]+0.002*[#  12]
          +0.002*[#   9]
    |psi|^2 = 0.021
==== e(  26) =     4.46013 eV ==== 
     psi = 0.002*[#   7]+0.001*[#  11]
    |psi|^2 = 0.003
==== e(  27) =     4.69113 eV ==== 
     psi = 0.042*[#   6]+0.009*[#  10]+0.009*[#   5]+0.009*[#   9]+0.005*[#   8]
          
    |psi|^2 = 0.076
==== e(  28) =     4.90406 eV ==== 
     psi = 0.006*[#   6]+0.002*[#   5]+0.001*[#  10]+0.001*[#   9]
    |psi|^2 = 0.010
==== e(  29) =     4.94159 eV ==== 
     psi = 0.011*[#   7]+0.002*[#  11]
    |psi|^2 = 0.013
==== e(  30) =     5.18388 eV ==== 
     psi = 0.009*[#   6]+0.006*[#   8]+0.002*[#   5]+0.001*[#   9]+0.001*[#  10]
          
    |psi|^2 = 0.020
==== e(  31) =     5.34725 eV ==== 
     psi = 0.004*[#   7]
    |psi|^2 = 0.005
==== e(  32) =     5.46064 eV ==== 
     psi = 0.004*[#   6]+0.001*[#   8]
    |psi|^2 = 0.008
==== e(  33) =     5.74610 eV ==== 
     psi = 0.002*[#   8]
    |psi|^2 = 0.004

 k =   0.0000000000 -0.5000000000  0.0000000000
==== e(   1) =   -80.23968 eV ==== 
     psi = 0.995*[#   1]+0.004*[#  10]
    |psi|^2 = 1.000
==== e(   2) =   -47.21477 eV ==== 
     psi = 0.984*[#   2]+0.011*[#   6]+0.003*[#  10]+0.002*[#   9]
    |psi|^2 = 1.000
==== e(   3) =   -47.18455 eV ==== 
     psi = 0.989*[#   3]+0.010*[#   7]
    |psi|^2 = 1.000
==== e(   4) =   -47.18455 eV ==== 
     psi = 0.989*[#   4]+0.010*[#   8]
    |psi|^2 = 1.000
==== e(   5) =   -14.20788 eV ==== 
     psi = 0.841*[#   9]+0.082*[#   6]+0.071*[#   5]+0.003*[#  10]
    |psi|^2 = 0.997
==== e(   6) =    -5.78733 eV ==== 
     psi = 0.630*[#  10]+0.313*[#   5]+0.044*[#   9]+0.002*[#   1]
    |psi|^2 = 0.991
==== e(   7) =    -4.16267 eV ==== 
     psi = 0.864*[#  12]+0.126*[#   8]
    |psi|^2 = 0.990
==== e(   8) =    -4.13140 eV ==== 
     psi = 0.876*[#  11]+0.115*[#   7]
    |psi|^2 = 0.992
==== e(   9) =    -3.44814 eV ==== 
     psi = 0.442*[#   5]+0.312*[#   6]+0.223*[#  10]
    |psi|^2 = 0.979
==== e(  10) =    -0.84974 eV ==== 
     psi = 0.553*[#   8]+0.089*[#  12]+0.007*[#   4]
    |psi|^2 = 0.648
==== e(  11) =    -0.23297 eV ==== 
     psi = 0.716*[#   7]+0.094*[#  11]+0.008*[#   3]
    |psi|^2 = 0.819
==== e(  12) =     0.87627 eV ==== 
     psi = 0.213*[#   6]+0.095*[#   5]+0.049*[#  10]+0.041*[#   9]+0.005*[#   2]
          
    |psi|^2 = 0.404
==== e(  13) =     0.97022 eV ==== 
     psi = 0.021*[#   6]+0.001*[#   9]
    |psi|^2 = 0.024
==== e(  14) =     1.21250 eV ==== 
     psi = 0.118*[#   8]+0.014*[#  12]+0.001*[#   4]
    |psi|^2 = 0.133
==== e(  15) =     1.96102 eV ==== 
     psi = 0.003*[#  12]
    |psi|^2 = 0.003
==== e(  16) =     2.00747 eV ==== 
     psi = 0.033*[#   6]+0.012*[#   5]+0.009*[#   9]+0.008*[#  10]
    |psi|^2 = 0.063
==== e(  17) =     2.21897 eV ==== 
 
    |psi|^2 = 0.000
==== e(  18) =     2.51731 eV ==== 
     psi = 0.051*[#   8]+0.007*[#  12]
    |psi|^2 = 0.058
==== e(  19) =     3.21668 eV ==== 
     psi = 0.044*[#   7]+0.011*[#  11]
    |psi|^2 = 0.056
==== e(  20) =     3.22189 eV ==== 
     psi = 0.053*[#   6]+0.013*[#   5]+0.011*[#  10]+0.009*[#   9]+0.001*[#   2]
          
    |psi|^2 = 0.087
==== e(  21) =     3.48821 eV ==== 
     psi = 0.050*[#   8]+0.007*[#  12]
    |psi|^2 = 0.057
==== e(  22) =     3.61815 eV ==== 
     psi = 0.005*[#  10]
    |psi|^2 = 0.007
==== e(  23) =     4.10654 eV ==== 
 
    |psi|^2 = 0.000
==== e(  24) =     4.15539 eV ==== 
     psi = 0.022*[#   6]+0.005*[#  10]+0.004*[#   9]+0.004*[#   5]
    |psi|^2 = 0.034
==== e(  25) =     4.31599 eV ==== 
     psi = 0.003*[#  12]
    |psi|^2 = 0.004
==== e(  26) =     4.44543 eV ==== 
 
    |psi|^2 = 0.000
==== e(  27) =     4.69823 eV ==== 
     psi = 0.012*[#   7]+0.005*[#  11]
    |psi|^2 = 0.017
==== e(  28) =     4.85187 eV ==== 
     psi = 0.006*[#   8]
    |psi|^2 = 0.007
==== e(  29) =     4.99997 eV ==== 
     psi = 0.003*[#   8]+0.003*[#  12]
    |psi|^2 = 0.006
==== e(  30) =     5.25086 eV ==== 
     psi = 0.013*[#   6]+0.005*[#   5]+0.004*[#  10]+0.002*[#   9]
    |psi|^2 = 0.025
==== e(  31) =     5.47209 eV ==== 
     psi = 0.012*[#   6]+0.008*[#   5]+0.002*[#   9]+0.001*[#  10]
    |psi|^2 = 0.023
==== e(  32) =     5.82064 eV ==== 
 
    |psi|^2 = 0.000
==== e(  33) =     5.82461 eV ==== 
     psi = 0.004*[#  11]+0.003*[#   7]
    |psi|^2 = 0.008

 k =   0.0000000000 -0.5000000000  0.1750000000
==== e(   1) =   -80.23968 eV ==== 
     psi = 0.995*[#   1]+0.004*[#  10]
    |psi|^2 = 1.000
==== e(   2) =   -47.21478 eV ==== 
     psi = 0.984*[#   2]+0.011*[#   6]+0.003*[#  10]+0.002*[#   9]
    |psi|^2 = 1.000
==== e(   3) =   -47.18455 eV ==== 
     psi = 0.989*[#   3]+0.010*[#   7]
    |psi|^2 = 1.000
==== e(   4) =   -47.18455 eV ==== 
     psi = 0.989*[#   4]+0.010*[#   8]
    |psi|^2 = 1.000
==== e(   5) =   -14.20788 eV ==== 
     psi = 0.841*[#   9]+0.082*[#   6]+0.071*[#   5]+0.003*[#  10]
    |psi|^2 = 0.997
==== e(   6) =    -5.78811 eV ==== 
     psi = 0.630*[#  10]+0.314*[#   5]+0.044*[#   9]+0.002*[#   1]
    |psi|^2 = 0.991
==== e(   7) =    -4.16253 eV ==== 
     psi = 0.865*[#  12]+0.125*[#   8]
    |psi|^2 = 0.990
==== e(   8) =    -4.13134 eV ==== 
     psi = 0.876*[#  11]+0.115*[#   7]
    |psi|^2 = 0.992
==== e(   9) =    -3.44288 eV ==== 
     psi = 0.442*[#   5]+0.313*[#   6]+0.223*[#  10]
    |psi|^2 = 0.980
==== e(  10) =    -0.85329 eV ==== 
     psi = 0.553*[#   8]+0.088*[#  12]+0.007*[#   4]
    |psi|^2 = 0.648
==== e(  11) =    -0.23583 eV ==== 
     psi = 0.715*[#   7]+0.094*[#  11]+0.008*[#   3]
    |psi|^2 = 0.818
==== e(  12) =     0.68187 eV ==== 
     psi = 0.163*[#   6]+0.076*[#   5]+0.041*[#  10]+0.033*[#   9]+0.004*[#   2]
          
    |psi|^2 = 0.318
==== e(  13) =     1.07811 eV ==== 
     psi = 0.058*[#   6]+0.011*[#   5]+0.007*[#   9]+0.004*[#  10]+0.001*[#   2]
          
    |psi|^2 = 0.081
==== e(  14) =     1.23558 eV ==== 
     psi = 0.089*[#   8]+0.013*[#  12]+0.001*[#   4]
    |psi|^2 = 0.104
==== e(  15) =     1.85467 eV ==== 
     psi = 0.066*[#   8]+0.007*[#  12]
    |psi|^2 = 0.074
==== e(  16) =     2.23493 eV ==== 
 
    |psi|^2 = 0.000
==== e(  17) =     2.25682 eV ==== 
     psi = 0.041*[#   6]+0.019*[#   5]+0.013*[#  10]+0.009*[#   9]+0.001*[#   2]
          
    |psi|^2 = 0.083
==== e(  18) =     2.72096 eV ==== 
     psi = 0.017*[#   8]+0.004*[#  12]
    |psi|^2 = 0.021
==== e(  19) =     3.08839 eV ==== 
     psi = 0.050*[#   6]+0.013*[#   5]+0.011*[#  10]+0.009*[#   9]+0.001*[#   2]
          
    |psi|^2 = 0.084
==== e(  20) =     3.31422 eV ==== 
     psi = 0.049*[#   7]+0.012*[#  11]
    |psi|^2 = 0.062
==== e(  21) =     3.52643 eV ==== 
     psi = 0.003*[#   6]+0.001*[#  10]
    |psi|^2 = 0.004
==== e(  22) =     3.54090 eV ==== 
     psi = 0.038*[#   8]+0.005*[#  12]
    |psi|^2 = 0.043
==== e(  23) =     3.80203 eV ==== 
 
    |psi|^2 = 0.000
==== e(  24) =     4.21506 eV ==== 
     psi = 0.008*[#   8]+0.002*[#  12]
    |psi|^2 = 0.009
==== e(  25) =     4.32154 eV ==== 
     psi = 0.004*[#   8]+0.002*[#  12]
    |psi|^2 = 0.005
==== e(  26) =     4.42355 eV ==== 
     psi = 0.004*[#   6]+0.003*[#  10]+0.002*[#   5]
    |psi|^2 = 0.010
==== e(  27) =     4.46384 eV ==== 
     psi = 0.011*[#   7]+0.004*[#  11]
    |psi|^2 = 0.016
==== e(  28) =     4.90512 eV ==== 
     psi = 0.059*[#   6]+0.015*[#   5]+0.014*[#  10]+0.013*[#   9]+0.001*[#   2]
          
    |psi|^2 = 0.102
==== e(  29) =     4.96214 eV ==== 
 
    |psi|^2 = 0.000
==== e(  30) =     5.31941 eV ==== 
     psi = 0.005*[#   8]+0.002*[#  12]
    |psi|^2 = 0.006
==== e(  31) =     5.48369 eV ==== 
     psi = 0.010*[#   6]+0.005*[#  10]+0.002*[#   9]+0.001*[#   5]
    |psi|^2 = 0.019
==== e(  32) =     5.71801 eV ==== 
     psi = 0.003*[#   7]+0.002*[#  11]
    |psi|^2 = 0.005
==== e(  33) =     5.95113 eV ==== 
     psi = 0.008*[#   8]+0.004*[#  12]
    |psi|^2 = 0.012

 k =   0.0000000000 -0.5000000000 -0.3500000000
==== e(   1) =   -80.23968 eV ==== 
     psi = 0.995*[#   1]+0.004*[#  10]
    |psi|^2 = 1.000
==== e(   2) =   -47.21478 eV ==== 
     psi = 0.984*[#   2]+0.011*[#   6]+0.003*[#  10]+0.002*[#   9]
    |psi|^2 = 1.000
==== e(   3) =   -47.18455 eV ==== 
     psi = 0.989*[#   4]+0.010*[#   8]
    |psi|^2 = 1.000
==== e(   4) =   -47.18455 eV ==== 
     psi = 0.989*[#   3]+0.010*[#   7]
    |psi|^2 = 1.000
==== e(   5) =   -14.20788 eV ==== 
     psi = 0.841*[#   9]+0.082*[#   6]+0.071*[#   5]+0.003*[#  10]
    |psi|^2 = 0.997
==== e(   6) =    -5.78889 eV ==== 
     psi = 0.630*[#  10]+0.314*[#   5]+0.044*[#   9]+0.002*[#   1]
    |psi|^2 = 0.991
==== e(   7) =    -4.16239 eV ==== 
     psi = 0.865*[#  12]+0.125*[#   8]
    |psi|^2 = 0.990
==== e(   8) =    -4.13129 eV ==== 
     psi = 0.876*[#  11]+0.115*[#   7]
    |psi|^2 = 0.992
==== e(   9) =    -3.43758 eV ==== 
     psi = 0.441*[#   5]+0.314*[#   6]+0.224*[#  10]
    |psi|^2 = 0.981
==== e(  10) =    -0.85683 eV ==== 
     psi = 0.554*[#   8]+0.087*[#  12]+0.007*[#   4]
    |psi|^2 = 0.648
==== e(  11) =    -0.23867 eV ==== 
     psi = 0.715*[#   7]+0.094*[#  11]+0.008*[#   3]
    |psi|^2 = 0.817
==== e(  12) =     0.57203 eV ==== 
     psi = 0.162*[#   6]+0.077*[#   5]+0.042*[#  10]+0.035*[#   9]+0.004*[#   2]
          
    |psi|^2 = 0.320
==== e(  13) =     1.11692 eV ==== 
     psi = 0.051*[#   6]+0.005*[#   5]+0.005*[#   9]
    |psi|^2 = 0.062
==== e(  14) =     1.26312 eV ==== 
     psi = 0.053*[#   8]+0.012*[#  12]
    |psi|^2 = 0.066
==== e(  15) =     1.76796 eV ==== 
     psi = 0.120*[#   8]+0.010*[#  12]+0.001*[#   4]
    |psi|^2 = 0.132
==== e(  16) =     2.25195 eV ==== 
 
    |psi|^2 = 0.000
==== e(  17) =     2.54626 eV ==== 
     psi = 0.043*[#   6]+0.024*[#   5]+0.019*[#  10]+0.008*[#   9]+0.001*[#   2]
          
    |psi|^2 = 0.095
==== e(  18) =     2.98061 eV ==== 
     psi = 0.010*[#   8]+0.004*[#  12]
    |psi|^2 = 0.014
==== e(  19) =     3.00499 eV ==== 
     psi = 0.038*[#   6]+0.013*[#   5]+0.006*[#   9]+0.003*[#  10]
    |psi|^2 = 0.061
==== e(  20) =     3.41491 eV ==== 
     psi = 0.016*[#   6]+0.003*[#   9]+0.001*[#   5]+0.001*[#  10]
    |psi|^2 = 0.021
==== e(  21) =     3.45055 eV ==== 
     psi = 0.060*[#   7]+0.015*[#  11]
    |psi|^2 = 0.076
==== e(  22) =     3.52431 eV ==== 
 
    |psi|^2 = 0.001
==== e(  23) =     3.64605 eV ==== 
 
    |psi|^2 = 0.000
==== e(  24) =     4.02181 eV ==== 
 
    |psi|^2 = 0.001
==== e(  25) =     4.11005 eV ==== 
     psi = 0.037*[#   8]+0.005*[#  12]
    |psi|^2 = 0.043
==== e(  26) =     4.21300 eV ==== 
     psi = 0.004*[#   7]+0.002*[#  11]
    |psi|^2 = 0.006
==== e(  27) =     4.25114 eV ==== 
     psi = 0.020*[#   6]+0.009*[#  10]+0.008*[#   5]+0.006*[#   9]
    |psi|^2 = 0.044
==== e(  28) =     5.28372 eV ==== 
     psi = 0.049*[#   6]+0.017*[#  10]+0.010*[#   9]+0.009*[#   5]+0.001*[#   2]
          
    |psi|^2 = 0.086
==== e(  29) =     5.41169 eV ==== 
     psi = 0.008*[#   8]+0.005*[#  12]
    |psi|^2 = 0.014
==== e(  30) =     5.54541 eV ==== 
     psi = 0.031*[#   6]+0.007*[#   5]+0.006*[#   9]+0.005*[#  10]
    |psi|^2 = 0.050
==== e(  31) =     5.67898 eV ==== 
     psi = 0.002*[#   7]+0.001*[#  11]
    |psi|^2 = 0.003
==== e(  32) =     5.69649 eV ==== 
 
    |psi|^2 = 0.000
==== e(  33) =     5.72291 eV ==== 
     psi = 0.012*[#   6]+0.002*[#   9]+0.001*[#  10]
    |psi|^2 = 0.017

 k =   0.0000000000 -0.5000000000 -0.1750000000
==== e(   1) =   -80.23968 eV ==== 
     psi = 0.995*[#   1]+0.004*[#  10]
    |psi|^2 = 1.000
==== e(   2) =   -47.21478 eV ==== 
     psi = 0.984*[#   2]+0.011*[#   6]+0.003*[#  10]+0.002*[#   9]
    |psi|^2 = 1.000
==== e(   3) =   -47.18455 eV ==== 
     psi = 0.989*[#   3]+0.010*[#   7]
    |psi|^2 = 1.000
==== e(   4) =   -47.18455 eV ==== 
     psi = 0.989*[#   4]+0.010*[#   8]
    |psi|^2 = 1.000
==== e(   5) =   -14.20788 eV ==== 
     psi = 0.841*[#   9]+0.082*[#   6]+0.071*[#   5]+0.003*[#  10]
    |psi|^2 = 0.997
==== e(   6) =    -5.78811 eV ==== 
     psi = 0.630*[#  10]+0.314*[#   5]+0.044*[#   9]+0.002*[#   1]
    |psi|^2 = 0.991
==== e(   7) =    -4.16253 eV ==== 
     psi = 0.865*[#  12]+0.125*[#   8]
    |psi|^2 = 0.990
==== e(   8) =    -4.13134 eV ==== 
     psi = 0.876*[#  11]+0.115*[#   7]
    |psi|^2 = 0.992
==== e(   9) =    -3.44288 eV ==== 
     psi = 0.442*[#   5]+0.313*[#   6]+0.223*[#  10]
    |psi|^2 = 0.980
==== e(  10) =    -0.85329 eV ==== 
     psi = 0.553*[#   8]+0.088*[#  12]+0.007*[#   4]
    |psi|^2 = 0.648
==== e(  11) =    -0.23583 eV ==== 
     psi = 0.715*[#   7]+0.094*[#  11]+0.008*[#   3]
    |psi|^2 = 0.818
==== e(  12) =     0.68187 eV ==== 
     psi = 0.163*[#   6]+0.076*[#   5]+0.041*[#  10]+0.033*[#   9]+0.004*[#   2]
          
    |psi|^2 = 0.318
==== e(  13) =     1.07811 eV ==== 
     psi = 0.058*[#   6]+0.011*[#   5]+0.007*[#   9]+0.004*[#  10]+0.001*[#   2]
          
    |psi|^2 = 0.081
==== e(  14) =     1.23558 eV ==== 
     psi = 0.089*[#   8]+0.013*[#  12]+0.001*[#   4]
    |psi|^2 = 0.104
==== e(  15) =     1.85467 eV ==== 
     psi = 0.066*[#   8]+0.007*[#  12]
    |psi|^2 = 0.074
==== e(  16) =     2.23493 eV ==== 
 
    |psi|^2 = 0.000
==== e(  17) =     2.25682 eV ==== 
     psi = 0.041*[#   6]+0.019*[#   5]+0.013*[#  10]+0.009*[#   9]+0.001*[#   2]
          
    |psi|^2 = 0.083
==== e(  18) =     2.72096 eV ==== 
     psi = 0.017*[#   8]+0.004*[#  12]
    |psi|^2 = 0.021
==== e(  19) =     3.08839 eV ==== 
     psi = 0.050*[#   6]+0.013*[#   5]+0.011*[#  10]+0.009*[#   9]+0.001*[#   2]
          
    |psi|^2 = 0.084
==== e(  20) =     3.31422 eV ==== 
     psi = 0.049*[#   7]+0.012*[#  11]
    |psi|^2 = 0.062
==== e(  21) =     3.52643 eV ==== 
     psi = 0.003*[#   6]+0.001*[#  10]
    |psi|^2 = 0.004
==== e(  22) =     3.54090 eV ==== 
     psi = 0.038*[#   8]+0.005*[#  12]
    |psi|^2 = 0.043
==== e(  23) =     3.80203 eV ==== 
 
    |psi|^2 = 0.000
==== e(  24) =     4.21506 eV ==== 
     psi = 0.008*[#   8]+0.002*[#  12]
    |psi|^2 = 0.009
==== e(  25) =     4.32154 eV ==== 
     psi = 0.004*[#   8]+0.002*[#  12]
    |psi|^2 = 0.005
==== e(  26) =     4.42355 eV ==== 
     psi = 0.004*[#   6]+0.003*[#  10]+0.002*[#   5]
    |psi|^2 = 0.010
==== e(  27) =     4.46384 eV ==== 
     psi = 0.011*[#   7]+0.004*[#  11]
    |psi|^2 = 0.016
==== e(  28) =     4.90512 eV ==== 
     psi = 0.059*[#   6]+0.015*[#   5]+0.014*[#  10]+0.013*[#   9]+0.001*[#   2]
          
    |psi|^2 = 0.102
==== e(  29) =     4.96214 eV ==== 
 
    |psi|^2 = 0.000
==== e(  30) =     5.31941 eV ==== 
     psi = 0.005*[#   8]+0.002*[#  12]
    |psi|^2 = 0.006
==== e(  31) =     5.48369 eV ==== 
     psi = 0.010*[#   6]+0.005*[#  10]+0.002*[#   9]+0.001*[#   5]
    |psi|^2 = 0.019
==== e(  32) =     5.71801 eV ==== 
     psi = 0.003*[#   7]+0.002*[#  11]
    |psi|^2 = 0.005
==== e(  33) =     5.95113 eV ==== 
     psi = 0.008*[#   8]+0.004*[#  12]
    |psi|^2 = 0.012

 k =   0.0000000000 -0.2500000000  0.0000000000
==== e(   1) =   -80.23968 eV ==== 
     psi = 0.995*[#   1]+0.004*[#  10]
    |psi|^2 = 1.000
==== e(   2) =   -47.21478 eV ==== 
     psi = 0.984*[#   2]+0.011*[#   6]+0.003*[#  10]+0.002*[#   9]
    |psi|^2 = 1.000
==== e(   3) =   -47.18455 eV ==== 
     psi = 0.989*[#   3]+0.010*[#   7]
    |psi|^2 = 1.000
==== e(   4) =   -47.18455 eV ==== 
     psi = 0.989*[#   4]+0.010*[#   8]
    |psi|^2 = 1.000
==== e(   5) =   -14.20795 eV ==== 
     psi = 0.841*[#   9]+0.082*[#   6]+0.071*[#   5]+0.003*[#  10]
    |psi|^2 = 0.997
==== e(   6) =    -5.79060 eV ==== 
     psi = 0.628*[#  10]+0.316*[#   5]+0.044*[#   9]+0.002*[#   1]
    |psi|^2 = 0.991
==== e(   7) =    -4.14850 eV ==== 
     psi = 0.869*[#  12]+0.121*[#   8]
    |psi|^2 = 0.991
==== e(   8) =    -4.13265 eV ==== 
     psi = 0.876*[#  11]+0.116*[#   7]
    |psi|^2 = 0.992
==== e(   9) =    -3.47059 eV ==== 
     psi = 0.441*[#   5]+0.308*[#   6]+0.225*[#  10]
    |psi|^2 = 0.976
==== e(  10) =    -0.63622 eV ==== 
     psi = 0.572*[#   8]+0.085*[#  12]+0.007*[#   4]+0.004*[#   6]
    |psi|^2 = 0.669
==== e(  11) =    -0.26444 eV ==== 
     psi = 0.707*[#   7]+0.094*[#  11]+0.008*[#   3]
    |psi|^2 = 0.809
==== e(  12) =     0.58090 eV ==== 
     psi = 0.062*[#   8]+0.042*[#   6]+0.007*[#  12]+0.004*[#   9]+0.001*[#   5]
          
    |psi|^2 = 0.117
==== e(  13) =     0.67279 eV ==== 
     psi = 0.176*[#   6]+0.086*[#   5]+0.043*[#  10]+0.035*[#   9]+0.004*[#   2]
          
    |psi|^2 = 0.345
==== e(  14) =     1.55933 eV ==== 
     psi = 0.018*[#   8]+0.003*[#   5]+0.003*[#   6]+0.003*[#  10]+0.001*[#   9]
          +0.001*[#  12]
    |psi|^2 = 0.030
==== e(  15) =     1.75016 eV ==== 
     psi = 0.073*[#   8]+0.010*[#  12]+0.006*[#   6]+0.002*[#   9]+0.002*[#   5]
          +0.001*[#  10]
    |psi|^2 = 0.094
==== e(  16) =     2.25656 eV ==== 
     psi = 0.004*[#  10]+0.003*[#   5]+0.002*[#   6]
    |psi|^2 = 0.011
==== e(  17) =     2.48134 eV ==== 
     psi = 0.013*[#   7]+0.002*[#  11]
    |psi|^2 = 0.015
==== e(  18) =     2.59749 eV ==== 
     psi = 0.059*[#   6]+0.016*[#   5]+0.010*[#   9]+0.010*[#  10]+0.002*[#   8]
          +0.001*[#   2]+0.001*[#  12]
    |psi|^2 = 0.101
==== e(  19) =     3.07679 eV ==== 
     psi = 0.035*[#   7]+0.008*[#  11]
    |psi|^2 = 0.044
==== e(  20) =     3.18974 eV ==== 
     psi = 0.010*[#   8]+0.001*[#  12]
    |psi|^2 = 0.012
==== e(  21) =     3.24101 eV ==== 
     psi = 0.016*[#   6]+0.010*[#  10]+0.007*[#   8]+0.006*[#   5]+0.004*[#   9]
          +0.002*[#  12]
    |psi|^2 = 0.046
==== e(  22) =     3.83957 eV ==== 
     psi = 0.023*[#   6]+0.005*[#  10]+0.005*[#   9]+0.004*[#   5]+0.004*[#   8]
          
    |psi|^2 = 0.042
==== e(  23) =     4.14304 eV ==== 
     psi = 0.006*[#   7]+0.003*[#  11]
    |psi|^2 = 0.009
==== e(  24) =     4.19663 eV ==== 
     psi = 0.023*[#   8]+0.007*[#  12]
    |psi|^2 = 0.032
==== e(  25) =     4.49789 eV ==== 
     psi = 0.002*[#   8]
    |psi|^2 = 0.004
==== e(  26) =     4.51076 eV ==== 
     psi = 0.002*[#  11]+0.002*[#   7]
    |psi|^2 = 0.003
==== e(  27) =     4.76352 eV ==== 
     psi = 0.028*[#   6]+0.010*[#   5]+0.004*[#   9]+0.004*[#  10]
    |psi|^2 = 0.046
==== e(  28) =     4.96022 eV ==== 
     psi = 0.011*[#   7]+0.001*[#  11]
    |psi|^2 = 0.013
==== e(  29) =     5.15054 eV ==== 
 
    |psi|^2 = 0.002
==== e(  30) =     5.24720 eV ==== 
     psi = 0.015*[#   7]+0.003*[#  11]
    |psi|^2 = 0.018
==== e(  31) =     5.30222 eV ==== 
     psi = 0.002*[#   5]+0.002*[#   6]
    |psi|^2 = 0.006
==== e(  32) =     5.58098 eV ==== 
     psi = 0.013*[#   6]+0.004*[#   5]+0.002*[#   9]+0.001*[#  10]
    |psi|^2 = 0.021
==== e(  33) =     5.65953 eV ==== 
     psi = 0.010*[#   8]+0.001*[#   6]
    |psi|^2 = 0.012

 k =   0.0000000000 -0.2500000000  0.1750000000
==== e(   1) =   -80.23968 eV ==== 
     psi = 0.995*[#   1]+0.004*[#  10]
    |psi|^2 = 1.000
==== e(   2) =   -47.21478 eV ==== 
     psi = 0.984*[#   2]+0.011*[#   6]+0.003*[#  10]+0.002*[#   9]
    |psi|^2 = 1.000
==== e(   3) =   -47.18455 eV ==== 
     psi = 0.989*[#   3]+0.010*[#   7]
    |psi|^2 = 1.000
==== e(   4) =   -47.18455 eV ==== 
     psi = 0.989*[#   4]+0.010*[#   8]
    |psi|^2 = 1.000
==== e(   5) =   -14.20795 eV ==== 
     psi = 0.841*[#   9]+0.082*[#   6]+0.071*[#   5]+0.003*[#  10]
    |psi|^2 = 0.997
==== e(   6) =    -5.79141 eV ==== 
     psi = 0.628*[#  10]+0.316*[#   5]+0.044*[#   9]+0.002*[#   1]
    |psi|^2 = 0.991
==== e(   7) =    -4.14839 eV ==== 
     psi = 0.870*[#  12]+0.121*[#   8]
    |psi|^2 = 0.991
==== e(   8) =    -4.13259 eV ==== 
     psi = 0.876*[#  11]+0.116*[#   7]
    |psi|^2 = 0.992
==== e(   9) =    -3.46501 eV ==== 
     psi = 0.440*[#   5]+0.309*[#   6]+0.225*[#  10]
    |psi|^2 = 0.977
==== e(  10) =    -0.63882 eV ==== 
     psi = 0.574*[#   8]+0.085*[#  12]+0.007*[#   4]+0.004*[#   6]
    |psi|^2 = 0.669
==== e(  11) =    -0.26742 eV ==== 
     psi = 0.706*[#   7]+0.094*[#  11]+0.008*[#   3]
    |psi|^2 = 0.808
==== e(  12) =     0.40928 eV ==== 
     psi = 0.118*[#   6]+0.055*[#   5]+0.029*[#  10]+0.024*[#   9]+0.012*[#   8]
          +0.003*[#   2]+0.002*[#  12]
    |psi|^2 = 0.243
==== e(  13) =     0.75757 eV ==== 
     psi = 0.083*[#   6]+0.052*[#   8]+0.021*[#   5]+0.012*[#   9]+0.009*[#  10]
          +0.006*[#  12]+0.002*[#   2]
    |psi|^2 = 0.184
==== e(  14) =     1.63648 eV ==== 
     psi = 0.046*[#   8]+0.008*[#   6]+0.005*[#   5]+0.005*[#  12]+0.004*[#  10]
          +0.002*[#   9]
    |psi|^2 = 0.071
==== e(  15) =     1.91571 eV ==== 
     psi = 0.046*[#   8]+0.013*[#   6]+0.009*[#   5]+0.007*[#  12]+0.007*[#  10]
          +0.003*[#   9]
    |psi|^2 = 0.086
==== e(  16) =     2.11538 eV ==== 
     psi = 0.022*[#   6]+0.008*[#   5]+0.005*[#  10]+0.005*[#   9]
    |psi|^2 = 0.042
==== e(  17) =     2.50815 eV ==== 
     psi = 0.012*[#   7]+0.001*[#  11]
    |psi|^2 = 0.013
==== e(  18) =     2.78985 eV ==== 
     psi = 0.037*[#   6]+0.008*[#   5]+0.006*[#   9]+0.004*[#   8]+0.004*[#  10]
          
    |psi|^2 = 0.062
==== e(  19) =     3.00841 eV ==== 
     psi = 0.014*[#   6]+0.009*[#  10]+0.006*[#   5]+0.004*[#   9]+0.002*[#   8]
          
    |psi|^2 = 0.035
==== e(  20) =     3.12155 eV ==== 
     psi = 0.039*[#   7]+0.009*[#  11]
    |psi|^2 = 0.049
==== e(  21) =     3.32215 eV ==== 
     psi = 0.010*[#   8]+0.003*[#  12]
    |psi|^2 = 0.014
==== e(  22) =     3.80367 eV ==== 
     psi = 0.005*[#   8]+0.003*[#   6]+0.003*[#   5]+0.001*[#  12]+0.001*[#  10]
          
    |psi|^2 = 0.014
==== e(  23) =     3.98563 eV ==== 
     psi = 0.012*[#   7]+0.004*[#  11]
    |psi|^2 = 0.016
==== e(  24) =     4.25276 eV ==== 
     psi = 0.019*[#   6]+0.012*[#   8]+0.006*[#   5]+0.004*[#  10]+0.003*[#   9]
          +0.003*[#  12]
    |psi|^2 = 0.047
==== e(  25) =     4.42606 eV ==== 
     psi = 0.007*[#   6]+0.005*[#   8]+0.003*[#  10]+0.002*[#   5]+0.002*[#  12]
          +0.002*[#   9]
    |psi|^2 = 0.021
==== e(  26) =     4.46013 eV ==== 
     psi = 0.002*[#   7]+0.001*[#  11]
    |psi|^2 = 0.003
==== e(  27) =     4.69113 eV ==== 
     psi = 0.042*[#   6]+0.009*[#  10]+0.009*[#   5]+0.009*[#   9]+0.005*[#   8]
          
    |psi|^2 = 0.076
==== e(  28) =     4.90406 eV ==== 
     psi = 0.006*[#   6]+0.002*[#   5]+0.001*[#  10]+0.001*[#   9]
    |psi|^2 = 0.010
==== e(  29) =     4.94159 eV ==== 
     psi = 0.011*[#   7]+0.002*[#  11]
    |psi|^2 = 0.013
==== e(  30) =     5.18388 eV ==== 
     psi = 0.009*[#   6]+0.006*[#   8]+0.002*[#   5]+0.001*[#   9]+0.001*[#  10]
          
    |psi|^2 = 0.020
==== e(  31) =     5.34725 eV ==== 
     psi = 0.004*[#   7]
    |psi|^2 = 0.005
==== e(  32) =     5.46064 eV ==== 
     psi = 0.004*[#   6]+0.001*[#   8]
    |psi|^2 = 0.008
==== e(  33) =     5.74610 eV ==== 
     psi = 0.002*[#   8]
    |psi|^2 = 0.004

 k =   0.0000000000 -0.2500000000 -0.3500000000
==== e(   1) =   -80.23968 eV ==== 
     psi = 0.995*[#   1]+0.004*[#  10]
    |psi|^2 = 1.000
==== e(   2) =   -47.21478 eV ==== 
     psi = 0.984*[#   2]+0.011*[#   6]+0.003*[#  10]+0.002*[#   9]
    |psi|^2 = 1.000
==== e(   3) =   -47.18455 eV ==== 
     psi = 0.989*[#   3]+0.010*[#   7]
    |psi|^2 = 1.000
==== e(   4) =   -47.18455 eV ==== 
     psi = 0.989*[#   4]+0.010*[#   8]
    |psi|^2 = 1.000
==== e(   5) =   -14.20795 eV ==== 
     psi = 0.841*[#   9]+0.082*[#   6]+0.071*[#   5]+0.003*[#  10]
    |psi|^2 = 0.997
==== e(   6) =    -5.79222 eV ==== 
     psi = 0.628*[#  10]+0.316*[#   5]+0.044*[#   9]+0.002*[#   1]
    |psi|^2 = 0.991
==== e(   7) =    -4.14828 eV ==== 
     psi = 0.870*[#  12]+0.121*[#   8]
    |psi|^2 = 0.991
==== e(   8) =    -4.13253 eV ==== 
     psi = 0.876*[#  11]+0.116*[#   7]
    |psi|^2 = 0.992
==== e(   9) =    -3.45939 eV ==== 
     psi = 0.440*[#   5]+0.310*[#   6]+0.226*[#  10]
    |psi|^2 = 0.978
==== e(  10) =    -0.64141 eV ==== 
     psi = 0.575*[#   8]+0.084*[#  12]+0.007*[#   4]+0.003*[#   6]
    |psi|^2 = 0.670
==== e(  11) =    -0.27039 eV ==== 
     psi = 0.705*[#   7]+0.093*[#  11]+0.008*[#   3]
    |psi|^2 = 0.807
==== e(  12) =     0.30690 eV ==== 
     psi = 0.128*[#   6]+0.064*[#   5]+0.033*[#  10]+0.028*[#   9]+0.003*[#   2]
          +0.003*[#   8]
    |psi|^2 = 0.260
==== e(  13) =     0.79108 eV ==== 
     psi = 0.063*[#   6]+0.060*[#   8]+0.007*[#   5]+0.006*[#   9]+0.007*[#  12]
          +0.001*[#   2]
    |psi|^2 = 0.145
==== e(  14) =     1.75676 eV ==== 
     psi = 0.075*[#   8]+0.014*[#   6]+0.011*[#  12]+0.008*[#   5]+0.006*[#  10]
          +0.003*[#   9]
    |psi|^2 = 0.119
==== e(  15) =     1.80388 eV ==== 
     psi = 0.014*[#   6]+0.012*[#   8]+0.008*[#   5]+0.007*[#  10]+0.003*[#   9]
          
    |psi|^2 = 0.044
==== e(  16) =     2.35457 eV ==== 
     psi = 0.032*[#   6]+0.016*[#   5]+0.010*[#  10]+0.009*[#   8]+0.005*[#   9]
          +0.002*[#  12]
    |psi|^2 = 0.076
==== e(  17) =     2.53694 eV ==== 
     psi = 0.010*[#   7]+0.001*[#  11]
    |psi|^2 = 0.011
==== e(  18) =     2.74844 eV ==== 
     psi = 0.015*[#   6]+0.005*[#   8]+0.005*[#   5]+0.002*[#   9]
    |psi|^2 = 0.029
==== e(  19) =     3.06985 eV ==== 
     psi = 0.003*[#   6]+0.001*[#   8]
    |psi|^2 = 0.005
==== e(  20) =     3.16738 eV ==== 
     psi = 0.043*[#   7]+0.010*[#  11]
    |psi|^2 = 0.053
==== e(  21) =     3.39015 eV ==== 
     psi = 0.027*[#   6]+0.011*[#   5]+0.008*[#  10]+0.007*[#   9]
    |psi|^2 = 0.054
==== e(  22) =     3.47343 eV ==== 
     psi = 0.014*[#   8]+0.005*[#  12]
    |psi|^2 = 0.019
==== e(  23) =     3.89964 eV ==== 
     psi = 0.020*[#   7]+0.006*[#  11]
    |psi|^2 = 0.025
==== e(  24) =     4.26398 eV ==== 
     psi = 0.018*[#   6]+0.006*[#   5]+0.004*[#  10]+0.004*[#   9]+0.001*[#   8]
          
    |psi|^2 = 0.032
==== e(  25) =     4.33803 eV ==== 
     psi = 0.011*[#   6]+0.006*[#  10]+0.006*[#   8]+0.003*[#   9]+0.002*[#   5]
          +0.002*[#  12]
    |psi|^2 = 0.031
==== e(  26) =     4.34174 eV ==== 
 
    |psi|^2 = 0.000
==== e(  27) =     4.68363 eV ==== 
     psi = 0.023*[#   6]+0.006*[#   5]+0.006*[#  10]+0.004*[#   9]+0.002*[#   8]
          
    |psi|^2 = 0.042
==== e(  28) =     4.81337 eV ==== 
     psi = 0.002*[#   7]
    |psi|^2 = 0.002
==== e(  29) =     5.09946 eV ==== 
     psi = 0.036*[#   6]+0.007*[#   5]+0.006*[#  10]+0.006*[#   9]
    |psi|^2 = 0.056
==== e(  30) =     5.16710 eV ==== 
     psi = 0.021*[#   8]+0.007*[#   6]+0.003*[#  12]+0.001*[#   9]
    |psi|^2 = 0.034
==== e(  31) =     5.52960 eV ==== 
     psi = 0.010*[#   6]+0.004*[#   8]+0.002*[#   9]+0.001*[#   5]+0.001*[#  10]
          
    |psi|^2 = 0.020
==== e(  32) =     5.66096 eV ==== 
 
    |psi|^2 = 0.002
==== e(  33) =     5.91399 eV ==== 
     psi = 0.005*[#   7]+0.002*[#  11]
    |psi|^2 = 0.006

 k =   0.0000000000 -0.2500000000 -0.1750000000
==== e(   1) =   -80.23968 eV ==== 
     psi = 0.995*[#   1]+0.004*[#  10]
    |psi|^2 = 1.000
==== e(   2) =   -47.21478 eV ==== 
     psi = 0.984*[#   2]+0.011*[#   6]+0.003*[#  10]+0.002*[#   9]
    |psi|^2 = 1.000
==== e(   3) =   -47.18455 eV ==== 
     psi = 0.989*[#   3]+0.010*[#   7]
    |psi|^2 = 1.000
==== e(   4) =   -47.18455 eV ==== 
     psi = 0.989*[#   4]+0.010*[#   8]
    |psi|^2 = 1.000
==== e(   5) =   -14.20795 eV ==== 
     psi = 0.841*[#   9]+0.082*[#   6]+0.071*[#   5]+0.003*[#  10]
    |psi|^2 = 0.997
==== e(   6) =    -5.79141 eV ==== 
     psi = 0.628*[#  10]+0.316*[#   5]+0.044*[#   9]+0.002*[#   1]
    |psi|^2 = 0.991
==== e(   7) =    -4.14839 eV ==== 
     psi = 0.870*[#  12]+0.121*[#   8]
    |psi|^2 = 0.991
==== e(   8) =    -4.13259 eV ==== 
     psi = 0.876*[#  11]+0.116*[#   7]
    |psi|^2 = 0.992
==== e(   9) =    -3.46501 eV ==== 
     psi = 0.440*[#   5]+0.309*[#   6]+0.225*[#  10]
    |psi|^2 = 0.977
==== e(  10) =    -0.63882 eV ==== 
     psi = 0.574*[#   8]+0.085*[#  12]+0.007*[#   4]+0.004*[#   6]
    |psi|^2 = 0.669
==== e(  11) =    -0.26742 eV ==== 
     psi = 0.706*[#   7]+0.094*[#  11]+0.008*[#   3]
    |psi|^2 = 0.808
==== e(  12) =     0.40928 eV ==== 
     psi = 0.118*[#   6]+0.055*[#   5]+0.029*[#  10]+0.024*[#   9]+0.012*[#   8]
          +0.003*[#   2]+0.002*[#  12]
    |psi|^2 = 0.243
==== e(  13) =     0.75757 eV ==== 
     psi = 0.083*[#   6]+0.052*[#   8]+0.021*[#   5]+0.012*[#   9]+0.009*[#  10]
          +0.006*[#  12]+0.002*[#   2]
    |psi|^2 = 0.184
==== e(  14) =     1.63648 eV ==== 
     psi = 0.046*[#   8]+0.008*[#   6]+0.005*[#   5]+0.005*[#  12]+0.004*[#  10]
          +0.002*[#   9]
    |psi|^2 = 0.071
==== e(  15) =     1.91571 eV ==== 
     psi = 0.046*[#   8]+0.013*[#   6]+0.009*[#   5]+0.007*[#  12]+0.007*[#  10]
          +0.003*[#   9]
    |psi|^2 = 0.086
==== e(  16) =     2.11538 eV ==== 
     psi = 0.022*[#   6]+0.008*[#   5]+0.005*[#  10]+0.005*[#   9]
    |psi|^2 = 0.042
==== e(  17) =     2.50815 eV ==== 
     psi = 0.012*[#   7]+0.001*[#  11]
    |psi|^2 = 0.013
==== e(  18) =     2.78985 eV ==== 
     psi = 0.037*[#   6]+0.008*[#   5]+0.006*[#   9]+0.004*[#   8]+0.004*[#  10]
          
    |psi|^2 = 0.062
==== e(  19) =     3.00841 eV ==== 
     psi = 0.014*[#   6]+0.009*[#  10]+0.006*[#   5]+0.004*[#   9]+0.002*[#   8]
          
    |psi|^2 = 0.035
==== e(  20) =     3.12155 eV ==== 
     psi = 0.039*[#   7]+0.009*[#  11]
    |psi|^2 = 0.049
==== e(  21) =     3.32215 eV ==== 
     psi = 0.010*[#   8]+0.003*[#  12]
    |psi|^2 = 0.014
==== e(  22) =     3.80367 eV ==== 
     psi = 0.005*[#   8]+0.003*[#   6]+0.003*[#   5]+0.001*[#  12]+0.001*[#  10]
          
    |psi|^2 = 0.014
==== e(  23) =     3.98563 eV ==== 
     psi = 0.012*[#   7]+0.004*[#  11]
    |psi|^2 = 0.016
==== e(  24) =     4.25276 eV ==== 
     psi = 0.019*[#   6]+0.012*[#   8]+0.006*[#   5]+0.004*[#  10]+0.003*[#   9]
          +0.003*[#  12]
    |psi|^2 = 0.047
==== e(  25) =     4.42606 eV ==== 
     psi = 0.007*[#   6]+0.005*[#   8]+0.003*[#  10]+0.002*[#   5]+0.002*[#  12]
          +0.002*[#   9]
    |psi|^2 = 0.021
==== e(  26) =     4.46013 eV ==== 
     psi = 0.002*[#   7]+0.001*[#  11]
    |psi|^2 = 0.003
==== e(  27) =     4.69113 eV ==== 
     psi = 0.042*[#   6]+0.009*[#  10]+0.009*[#   5]+0.009*[#   9]+0.005*[#   8]
          
    |psi|^2 = 0.076
==== e(  28) =     4.90406 eV ==== 
     psi = 0.006*[#   6]+0.002*[#   5]+0.001*[#  10]+0.001*[#   9]
    |psi|^2 = 0.010
==== e(  29) =     4.94159 eV ==== 
     psi = 0.011*[#   7]+0.002*[#  11]
    |psi|^2 = 0.013
==== e(  30) =     5.18388 eV ==== 
     psi = 0.009*[#   6]+0.006*[#   8]+0.002*[#   5]+0.001*[#   9]+0.001*[#  10]
          
    |psi|^2 = 0.020
==== e(  31) =     5.34725 eV ==== 
     psi = 0.004*[#   7]
    |psi|^2 = 0.005
==== e(  32) =     5.46064 eV ==== 
     psi = 0.004*[#   6]+0.001*[#   8]
    |psi|^2 = 0.008
==== e(  33) =     5.74610 eV ==== 
     psi = 0.002*[#   8]
    |psi|^2 = 0.004

 k =   0.2500000000  0.0000000000  0.0000000000
==== e(   1) =   -80.23968 eV ==== 
     psi = 0.995*[#   1]+0.004*[#  10]
    |psi|^2 = 1.000
==== e(   2) =   -47.21478 eV ==== 
     psi = 0.984*[#   2]+0.011*[#   6]+0.003*[#  10]+0.002*[#   9]
    |psi|^2 = 1.000
==== e(   3) =   -47.18455 eV ==== 
     psi = 0.989*[#   4]+0.010*[#   8]
    |psi|^2 = 1.000
==== e(   4) =   -47.18455 eV ==== 
     psi = 0.989*[#   3]+0.010*[#   7]
    |psi|^2 = 1.000
==== e(   5) =   -14.20795 eV ==== 
     psi = 0.841*[#   9]+0.082*[#   6]+0.071*[#   5]+0.003*[#  10]
    |psi|^2 = 0.997
==== e(   6) =    -5.79060 eV ==== 
     psi = 0.628*[#  10]+0.316*[#   5]+0.044*[#   9]+0.002*[#   1]
    |psi|^2 = 0.991
==== e(   7) =    -4.14850 eV ==== 
     psi = 0.869*[#  11]+0.121*[#   7]
    |psi|^2 = 0.991
==== e(   8) =    -4.13265 eV ==== 
     psi = 0.876*[#  12]+0.116*[#   8]
    |psi|^2 = 0.992
==== e(   9) =    -3.47059 eV ==== 
     psi = 0.441*[#   5]+0.308*[#   6]+0.225*[#  10]
    |psi|^2 = 0.976
==== e(  10) =    -0.63622 eV ==== 
     psi = 0.572*[#   7]+0.085*[#  11]+0.007*[#   3]+0.004*[#   6]
    |psi|^2 = 0.669
==== e(  11) =    -0.26444 eV ==== 
     psi = 0.707*[#   8]+0.094*[#  12]+0.008*[#   4]
    |psi|^2 = 0.809
==== e(  12) =     0.58090 eV ==== 
     psi = 0.062*[#   7]+0.042*[#   6]+0.007*[#  11]+0.004*[#   9]+0.001*[#   5]
          
    |psi|^2 = 0.117
==== e(  13) =     0.67279 eV ==== 
     psi = 0.176*[#   6]+0.086*[#   5]+0.043*[#  10]+0.035*[#   9]+0.004*[#   2]
          
    |psi|^2 = 0.345
==== e(  14) =     1.55933 eV ==== 
     psi = 0.018*[#   7]+0.003*[#   5]+0.003*[#   6]+0.003*[#  10]+0.001*[#   9]
          +0.001*[#  11]
    |psi|^2 = 0.030
==== e(  15) =     1.75016 eV ==== 
     psi = 0.073*[#   7]+0.010*[#  11]+0.006*[#   6]+0.002*[#   9]+0.002*[#   5]
          +0.001*[#  10]
    |psi|^2 = 0.094
==== e(  16) =     2.25656 eV ==== 
     psi = 0.004*[#  10]+0.003*[#   5]+0.002*[#   6]
    |psi|^2 = 0.011
==== e(  17) =     2.48134 eV ==== 
     psi = 0.013*[#   8]+0.002*[#  12]
    |psi|^2 = 0.015
==== e(  18) =     2.59749 eV ==== 
     psi = 0.059*[#   6]+0.016*[#   5]+0.010*[#   9]+0.010*[#  10]+0.002*[#   7]
          +0.001*[#   2]+0.001*[#  11]
    |psi|^2 = 0.101
==== e(  19) =     3.07679 eV ==== 
     psi = 0.035*[#   8]+0.008*[#  12]
    |psi|^2 = 0.044
==== e(  20) =     3.18974 eV ==== 
     psi = 0.010*[#   7]+0.001*[#  11]
    |psi|^2 = 0.012
==== e(  21) =     3.24101 eV ==== 
     psi = 0.016*[#   6]+0.010*[#  10]+0.007*[#   7]+0.006*[#   5]+0.004*[#   9]
          +0.002*[#  11]
    |psi|^2 = 0.046
==== e(  22) =     3.83957 eV ==== 
     psi = 0.023*[#   6]+0.005*[#  10]+0.005*[#   9]+0.004*[#   5]+0.004*[#   7]
          
    |psi|^2 = 0.042
==== e(  23) =     4.14304 eV ==== 
     psi = 0.006*[#   8]+0.003*[#  12]
    |psi|^2 = 0.009
==== e(  24) =     4.19663 eV ==== 
     psi = 0.023*[#   7]+0.007*[#  11]
    |psi|^2 = 0.032
==== e(  25) =     4.49789 eV ==== 
     psi = 0.002*[#   7]
    |psi|^2 = 0.004
==== e(  26) =     4.51076 eV ==== 
     psi = 0.002*[#  12]+0.002*[#   8]
    |psi|^2 = 0.003
==== e(  27) =     4.76352 eV ==== 
     psi = 0.028*[#   6]+0.010*[#   5]+0.004*[#   9]+0.004*[#  10]
    |psi|^2 = 0.046
==== e(  28) =     4.96022 eV ==== 
     psi = 0.011*[#   8]+0.001*[#  12]
    |psi|^2 = 0.013
==== e(  29) =     5.15054 eV ==== 
 
    |psi|^2 = 0.002
==== e(  30) =     5.24720 eV ==== 
     psi = 0.015*[#   8]+0.003*[#  12]
    |psi|^2 = 0.018
==== e(  31) =     5.30222 eV ==== 
     psi = 0.002*[#   5]+0.002*[#   6]
    |psi|^2 = 0.006
==== e(  32) =     5.58098 eV ==== 
     psi = 0.013*[#   6]+0.004*[#   5]+0.002*[#   9]+0.001*[#  10]
    |psi|^2 = 0.021
==== e(  33) =     5.65953 eV ==== 
     psi = 0.010*[#   7]+0.001*[#   6]
    |psi|^2 = 0.012

 k =   0.2500000000  0.0000000000  0.1750000000
==== e(   1) =   -80.23968 eV ==== 
     psi = 0.995*[#   1]+0.004*[#  10]
    |psi|^2 = 1.000
==== e(   2) =   -47.21478 eV ==== 
     psi = 0.984*[#   2]+0.011*[#   6]+0.003*[#  10]+0.002*[#   9]
    |psi|^2 = 1.000
==== e(   3) =   -47.18455 eV ==== 
     psi = 0.989*[#   4]+0.010*[#   8]
    |psi|^2 = 1.000
==== e(   4) =   -47.18455 eV ==== 
     psi = 0.989*[#   3]+0.010*[#   7]
    |psi|^2 = 1.000
==== e(   5) =   -14.20795 eV ==== 
     psi = 0.841*[#   9]+0.082*[#   6]+0.071*[#   5]+0.003*[#  10]
    |psi|^2 = 0.997
==== e(   6) =    -5.79141 eV ==== 
     psi = 0.628*[#  10]+0.316*[#   5]+0.044*[#   9]+0.002*[#   1]
    |psi|^2 = 0.991
==== e(   7) =    -4.14839 eV ==== 
     psi = 0.870*[#  11]+0.121*[#   7]
    |psi|^2 = 0.991
==== e(   8) =    -4.13259 eV ==== 
     psi = 0.876*[#  12]+0.116*[#   8]
    |psi|^2 = 0.992
==== e(   9) =    -3.46501 eV ==== 
     psi = 0.440*[#   5]+0.309*[#   6]+0.225*[#  10]
    |psi|^2 = 0.977
==== e(  10) =    -0.63882 eV ==== 
     psi = 0.574*[#   7]+0.085*[#  11]+0.007*[#   3]+0.004*[#   6]
    |psi|^2 = 0.669
==== e(  11) =    -0.26742 eV ==== 
     psi = 0.706*[#   8]+0.094*[#  12]+0.008*[#   4]
    |psi|^2 = 0.808
==== e(  12) =     0.40928 eV ==== 
     psi = 0.118*[#   6]+0.055*[#   5]+0.029*[#  10]+0.024*[#   9]+0.012*[#   7]
          +0.003*[#   2]+0.002*[#  11]
    |psi|^2 = 0.243
==== e(  13) =     0.75757 eV ==== 
     psi = 0.083*[#   6]+0.052*[#   7]+0.021*[#   5]+0.012*[#   9]+0.009*[#  10]
          +0.006*[#  11]+0.002*[#   2]
    |psi|^2 = 0.184
==== e(  14) =     1.63648 eV ==== 
     psi = 0.046*[#   7]+0.008*[#   6]+0.005*[#   5]+0.005*[#  11]+0.004*[#  10]
          +0.002*[#   9]
    |psi|^2 = 0.071
==== e(  15) =     1.91571 eV ==== 
     psi = 0.046*[#   7]+0.013*[#   6]+0.009*[#   5]+0.007*[#  11]+0.007*[#  10]
          +0.003*[#   9]
    |psi|^2 = 0.086
==== e(  16) =     2.11538 eV ==== 
     psi = 0.022*[#   6]+0.008*[#   5]+0.005*[#  10]+0.005*[#   9]
    |psi|^2 = 0.042
==== e(  17) =     2.50815 eV ==== 
     psi = 0.012*[#   8]+0.001*[#  12]
    |psi|^2 = 0.013
==== e(  18) =     2.78985 eV ==== 
     psi = 0.037*[#   6]+0.008*[#   5]+0.006*[#   9]+0.004*[#   7]+0.004*[#  10]
          
    |psi|^2 = 0.062
==== e(  19) =     3.00841 eV ==== 
     psi = 0.014*[#   6]+0.009*[#  10]+0.006*[#   5]+0.004*[#   9]+0.002*[#   7]
          
    |psi|^2 = 0.035
==== e(  20) =     3.12155 eV ==== 
     psi = 0.039*[#   8]+0.009*[#  12]
    |psi|^2 = 0.049
==== e(  21) =     3.32215 eV ==== 
     psi = 0.010*[#   7]+0.003*[#  11]
    |psi|^2 = 0.014
==== e(  22) =     3.80367 eV ==== 
     psi = 0.005*[#   7]+0.003*[#   6]+0.003*[#   5]+0.001*[#  11]+0.001*[#  10]
          
    |psi|^2 = 0.014
==== e(  23) =     3.98563 eV ==== 
     psi = 0.012*[#   8]+0.004*[#  12]
    |psi|^2 = 0.016
==== e(  24) =     4.25276 eV ==== 
     psi = 0.019*[#   6]+0.012*[#   7]+0.006*[#   5]+0.004*[#  10]+0.003*[#   9]
          +0.003*[#  11]
    |psi|^2 = 0.047
==== e(  25) =     4.42606 eV ==== 
     psi = 0.007*[#   6]+0.005*[#   7]+0.003*[#  10]+0.002*[#   5]+0.002*[#  11]
          +0.002*[#   9]
    |psi|^2 = 0.021
==== e(  26) =     4.46013 eV ==== 
     psi = 0.002*[#   8]+0.001*[#  12]
    |psi|^2 = 0.003
==== e(  27) =     4.69113 eV ==== 
     psi = 0.042*[#   6]+0.009*[#  10]+0.009*[#   5]+0.009*[#   9]+0.005*[#   7]
          
    |psi|^2 = 0.076
==== e(  28) =     4.90406 eV ==== 
     psi = 0.006*[#   6]+0.002*[#   5]+0.001*[#  10]+0.001*[#   9]
    |psi|^2 = 0.010
==== e(  29) =     4.94159 eV ==== 
     psi = 0.011*[#   8]+0.002*[#  12]
    |psi|^2 = 0.013
==== e(  30) =     5.18388 eV ==== 
     psi = 0.009*[#   6]+0.006*[#   7]+0.002*[#   5]+0.001*[#   9]+0.001*[#  10]
          
    |psi|^2 = 0.020
==== e(  31) =     5.34725 eV ==== 
     psi = 0.004*[#   8]
    |psi|^2 = 0.005
==== e(  32) =     5.46064 eV ==== 
     psi = 0.004*[#   6]+0.001*[#   7]
    |psi|^2 = 0.008
==== e(  33) =     5.74610 eV ==== 
     psi = 0.002*[#   7]
    |psi|^2 = 0.004

 k =   0.2500000000  0.0000000000 -0.3500000000
==== e(   1) =   -80.23968 eV ==== 
     psi = 0.995*[#   1]+0.004*[#  10]
    |psi|^2 = 1.000
==== e(   2) =   -47.21478 eV ==== 
     psi = 0.984*[#   2]+0.011*[#   6]+0.003*[#  10]+0.002*[#   9]
    |psi|^2 = 1.000
==== e(   3) =   -47.18455 eV ==== 
     psi = 0.989*[#   4]+0.010*[#   8]
    |psi|^2 = 1.000
==== e(   4) =   -47.18455 eV ==== 
     psi = 0.989*[#   3]+0.010*[#   7]
    |psi|^2 = 1.000
==== e(   5) =   -14.20795 eV ==== 
     psi = 0.841*[#   9]+0.082*[#   6]+0.071*[#   5]+0.003*[#  10]
    |psi|^2 = 0.997
==== e(   6) =    -5.79222 eV ==== 
     psi = 0.628*[#  10]+0.316*[#   5]+0.044*[#   9]+0.002*[#   1]
    |psi|^2 = 0.991
==== e(   7) =    -4.14828 eV ==== 
     psi = 0.870*[#  11]+0.121*[#   7]
    |psi|^2 = 0.991
==== e(   8) =    -4.13253 eV ==== 
     psi = 0.876*[#  12]+0.116*[#   8]
    |psi|^2 = 0.992
==== e(   9) =    -3.45939 eV ==== 
     psi = 0.440*[#   5]+0.310*[#   6]+0.226*[#  10]
    |psi|^2 = 0.978
==== e(  10) =    -0.64141 eV ==== 
     psi = 0.575*[#   7]+0.084*[#  11]+0.007*[#   3]+0.003*[#   6]
    |psi|^2 = 0.670
==== e(  11) =    -0.27039 eV ==== 
     psi = 0.705*[#   8]+0.093*[#  12]+0.008*[#   4]
    |psi|^2 = 0.807
==== e(  12) =     0.30690 eV ==== 
     psi = 0.128*[#   6]+0.064*[#   5]+0.033*[#  10]+0.028*[#   9]+0.003*[#   2]
          +0.003*[#   7]
    |psi|^2 = 0.260
==== e(  13) =     0.79108 eV ==== 
     psi = 0.063*[#   6]+0.060*[#   7]+0.007*[#   5]+0.006*[#   9]+0.007*[#  11]
          +0.001*[#   2]
    |psi|^2 = 0.145
==== e(  14) =     1.75676 eV ==== 
     psi = 0.075*[#   7]+0.014*[#   6]+0.011*[#  11]+0.008*[#   5]+0.006*[#  10]
          +0.003*[#   9]
    |psi|^2 = 0.119
==== e(  15) =     1.80388 eV ==== 
     psi = 0.014*[#   6]+0.012*[#   7]+0.008*[#   5]+0.007*[#  10]+0.003*[#   9]
          
    |psi|^2 = 0.044
==== e(  16) =     2.35457 eV ==== 
     psi = 0.032*[#   6]+0.016*[#   5]+0.010*[#  10]+0.009*[#   7]+0.005*[#   9]
          +0.002*[#  11]
    |psi|^2 = 0.076
==== e(  17) =     2.53694 eV ==== 
     psi = 0.010*[#   8]+0.001*[#  12]
    |psi|^2 = 0.011
==== e(  18) =     2.74844 eV ==== 
     psi = 0.015*[#   6]+0.005*[#   7]+0.005*[#   5]+0.002*[#   9]
    |psi|^2 = 0.029
==== e(  19) =     3.06985 eV ==== 
     psi = 0.003*[#   6]+0.001*[#   7]
    |psi|^2 = 0.005
==== e(  20) =     3.16738 eV ==== 
     psi = 0.043*[#   8]+0.010*[#  12]
    |psi|^2 = 0.053
==== e(  21) =     3.39015 eV ==== 
     psi = 0.027*[#   6]+0.011*[#   5]+0.008*[#  10]+0.007*[#   9]
    |psi|^2 = 0.054
==== e(  22) =     3.47343 eV ==== 
     psi = 0.014*[#   7]+0.005*[#  11]
    |psi|^2 = 0.019
==== e(  23) =     3.89964 eV ==== 
     psi = 0.020*[#   8]+0.006*[#  12]
    |psi|^2 = 0.025
==== e(  24) =     4.26398 eV ==== 
     psi = 0.018*[#   6]+0.006*[#   5]+0.004*[#  10]+0.004*[#   9]+0.001*[#   7]
          
    |psi|^2 = 0.032
==== e(  25) =     4.33803 eV ==== 
     psi = 0.011*[#   6]+0.006*[#  10]+0.006*[#   7]+0.003*[#   9]+0.002*[#   5]
          +0.002*[#  11]
    |psi|^2 = 0.031
==== e(  26) =     4.34174 eV ==== 
 
    |psi|^2 = 0.000
==== e(  27) =     4.68363 eV ==== 
     psi = 0.023*[#   6]+0.006*[#   5]+0.006*[#  10]+0.004*[#   9]+0.002*[#   7]
          
    |psi|^2 = 0.042
==== e(  28) =     4.81337 eV ==== 
     psi = 0.002*[#   8]
    |psi|^2 = 0.002
==== e(  29) =     5.09946 eV ==== 
     psi = 0.036*[#   6]+0.007*[#   5]+0.006*[#  10]+0.006*[#   9]
    |psi|^2 = 0.056
==== e(  30) =     5.16710 eV ==== 
     psi = 0.021*[#   7]+0.007*[#   6]+0.003*[#  11]+0.001*[#   9]
    |psi|^2 = 0.034
==== e(  31) =     5.52960 eV ==== 
     psi = 0.010*[#   6]+0.004*[#   7]+0.002*[#   9]+0.001*[#   5]+0.001*[#  10]
          
    |psi|^2 = 0.020
==== e(  32) =     5.66096 eV ==== 
 
    |psi|^2 = 0.002
==== e(  33) =     5.91399 eV ==== 
     psi = 0.005*[#   8]+0.002*[#  12]
    |psi|^2 = 0.006

 k =   0.2500000000  0.0000000000 -0.1750000000
==== e(   1) =   -80.23968 eV ==== 
     psi = 0.995*[#   1]+0.004*[#  10]
    |psi|^2 = 1.000
==== e(   2) =   -47.21478 eV ==== 
     psi = 0.984*[#   2]+0.011*[#   6]+0.003*[#  10]+0.002*[#   9]
    |psi|^2 = 1.000
==== e(   3) =   -47.18455 eV ==== 
     psi = 0.989*[#   4]+0.010*[#   8]
    |psi|^2 = 1.000
==== e(   4) =   -47.18455 eV ==== 
     psi = 0.989*[#   3]+0.010*[#   7]
    |psi|^2 = 1.000
==== e(   5) =   -14.20795 eV ==== 
     psi = 0.841*[#   9]+0.082*[#   6]+0.071*[#   5]+0.003*[#  10]
    |psi|^2 = 0.997
==== e(   6) =    -5.79141 eV ==== 
     psi = 0.628*[#  10]+0.316*[#   5]+0.044*[#   9]+0.002*[#   1]
    |psi|^2 = 0.991
==== e(   7) =    -4.14839 eV ==== 
     psi = 0.870*[#  11]+0.121*[#   7]
    |psi|^2 = 0.991
==== e(   8) =    -4.13259 eV ==== 
     psi = 0.876*[#  12]+0.116*[#   8]
    |psi|^2 = 0.992
==== e(   9) =    -3.46501 eV ==== 
     psi = 0.440*[#   5]+0.309*[#   6]+0.225*[#  10]
    |psi|^2 = 0.977
==== e(  10) =    -0.63882 eV ==== 
     psi = 0.574*[#   7]+0.085*[#  11]+0.007*[#   3]+0.004*[#   6]
    |psi|^2 = 0.669
==== e(  11) =    -0.26742 eV ==== 
     psi = 0.706*[#   8]+0.094*[#  12]+0.008*[#   4]
    |psi|^2 = 0.808
==== e(  12) =     0.40928 eV ==== 
     psi = 0.118*[#   6]+0.055*[#   5]+0.029*[#  10]+0.024*[#   9]+0.012*[#   7]
          +0.003*[#   2]+0.002*[#  11]
    |psi|^2 = 0.243
==== e(  13) =     0.75757 eV ==== 
     psi = 0.083*[#   6]+0.052*[#   7]+0.021*[#   5]+0.012*[#   9]+0.009*[#  10]
          +0.006*[#  11]+0.002*[#   2]
    |psi|^2 = 0.184
==== e(  14) =     1.63648 eV ==== 
     psi = 0.046*[#   7]+0.008*[#   6]+0.005*[#   5]+0.005*[#  11]+0.004*[#  10]
          +0.002*[#   9]
    |psi|^2 = 0.071
==== e(  15) =     1.91571 eV ==== 
     psi = 0.046*[#   7]+0.013*[#   6]+0.009*[#   5]+0.007*[#  11]+0.007*[#  10]
          +0.003*[#   9]
    |psi|^2 = 0.086
==== e(  16) =     2.11538 eV ==== 
     psi = 0.022*[#   6]+0.008*[#   5]+0.005*[#  10]+0.005*[#   9]
    |psi|^2 = 0.042
==== e(  17) =     2.50815 eV ==== 
     psi = 0.012*[#   8]+0.001*[#  12]
    |psi|^2 = 0.013
==== e(  18) =     2.78985 eV ==== 
     psi = 0.037*[#   6]+0.008*[#   5]+0.006*[#   9]+0.004*[#   7]+0.004*[#  10]
          
    |psi|^2 = 0.062
==== e(  19) =     3.00841 eV ==== 
     psi = 0.014*[#   6]+0.009*[#  10]+0.006*[#   5]+0.004*[#   9]+0.002*[#   7]
          
    |psi|^2 = 0.035
==== e(  20) =     3.12155 eV ==== 
     psi = 0.039*[#   8]+0.009*[#  12]
    |psi|^2 = 0.049
==== e(  21) =     3.32215 eV ==== 
     psi = 0.010*[#   7]+0.003*[#  11]
    |psi|^2 = 0.014
==== e(  22) =     3.80367 eV ==== 
     psi = 0.005*[#   7]+0.003*[#   6]+0.003*[#   5]+0.001*[#  11]+0.001*[#  10]
          
    |psi|^2 = 0.014
==== e(  23) =     3.98563 eV ==== 
     psi = 0.012*[#   8]+0.004*[#  12]
    |psi|^2 = 0.016
==== e(  24) =     4.25276 eV ==== 
     psi = 0.019*[#   6]+0.012*[#   7]+0.006*[#   5]+0.004*[#  10]+0.003*[#   9]
          +0.003*[#  11]
    |psi|^2 = 0.047
==== e(  25) =     4.42606 eV ==== 
     psi = 0.007*[#   6]+0.005*[#   7]+0.003*[#  10]+0.002*[#   5]+0.002*[#  11]
          +0.002*[#   9]
    |psi|^2 = 0.021
==== e(  26) =     4.46013 eV ==== 
     psi = 0.002*[#   8]+0.001*[#  12]
    |psi|^2 = 0.003
==== e(  27) =     4.69113 eV ==== 
     psi = 0.042*[#   6]+0.009*[#  10]+0.009*[#   5]+0.009*[#   9]+0.005*[#   7]
          
    |psi|^2 = 0.076
==== e(  28) =     4.90406 eV ==== 
     psi = 0.006*[#   6]+0.002*[#   5]+0.001*[#  10]+0.001*[#   9]
    |psi|^2 = 0.010
==== e(  29) =     4.94159 eV ==== 
     psi = 0.011*[#   8]+0.002*[#  12]
    |psi|^2 = 0.013
==== e(  30) =     5.18388 eV ==== 
     psi = 0.009*[#   6]+0.006*[#   7]+0.002*[#   5]+0.001*[#   9]+0.001*[#  10]
          
    |psi|^2 = 0.020
==== e(  31) =     5.34725 eV ==== 
     psi = 0.004*[#   8]
    |psi|^2 = 0.005
==== e(  32) =     5.46064 eV ==== 
     psi = 0.004*[#   6]+0.001*[#   7]
    |psi|^2 = 0.008
==== e(  33) =     5.74610 eV ==== 
     psi = 0.002*[#   7]
    |psi|^2 = 0.004

 k =   0.2500000000  0.2500000000  0.0000000000
==== e(   1) =   -80.23968 eV ==== 
     psi = 0.995*[#   1]+0.004*[#  10]
    |psi|^2 = 1.000
==== e(   2) =   -47.21478 eV ==== 
     psi = 0.984*[#   2]+0.011*[#   6]+0.003*[#  10]+0.002*[#   9]
    |psi|^2 = 1.000
==== e(   3) =   -47.18455 eV ==== 
     psi = 0.495*[#   3]+0.495*[#   4]+0.005*[#   7]+0.005*[#   8]
    |psi|^2 = 1.000
==== e(   4) =   -47.18455 eV ==== 
     psi = 0.495*[#   3]+0.495*[#   4]+0.005*[#   7]+0.005*[#   8]
    |psi|^2 = 1.000
==== e(   5) =   -14.20788 eV ==== 
     psi = 0.841*[#   9]+0.082*[#   6]+0.071*[#   5]+0.003*[#  10]
    |psi|^2 = 0.997
==== e(   6) =    -5.78745 eV ==== 
     psi = 0.630*[#  10]+0.314*[#   5]+0.044*[#   9]+0.002*[#   1]
    |psi|^2 = 0.991
==== e(   7) =    -4.14742 eV ==== 
     psi = 0.435*[#  11]+0.435*[#  12]+0.060*[#   7]+0.060*[#   8]
    |psi|^2 = 0.991
==== e(   8) =    -4.14634 eV ==== 
     psi = 0.435*[#  11]+0.435*[#  12]+0.060*[#   7]+0.060*[#   8]
    |psi|^2 = 0.991
==== e(   9) =    -3.44983 eV ==== 
     psi = 0.441*[#   5]+0.312*[#   6]+0.222*[#  10]
    |psi|^2 = 0.978
==== e(  10) =    -0.61874 eV ==== 
     psi = 0.285*[#   7]+0.285*[#   8]+0.042*[#  11]+0.042*[#  12]+0.006*[#   6]
          +0.003*[#   3]+0.003*[#   4]
    |psi|^2 = 0.667
==== e(  11) =    -0.53731 eV ==== 
     psi = 0.317*[#   7]+0.317*[#   8]+0.046*[#  11]+0.046*[#  12]+0.004*[#   3]
          +0.004*[#   4]
    |psi|^2 = 0.732
==== e(  12) =     0.78238 eV ==== 
     psi = 0.046*[#   6]+0.042*[#   5]+0.026*[#  10]+0.017*[#   7]+0.017*[#   8]
          +0.012*[#   9]+0.002*[#  11]+0.002*[#  12]+0.001*[#   2]
    |psi|^2 = 0.167
==== e(  13) =     0.89285 eV ==== 
     psi = 0.167*[#   6]+0.051*[#   5]+0.036*[#   7]+0.036*[#   8]+0.028*[#   9]
          +0.022*[#  10]+0.004*[#   2]+0.003*[#  11]+0.003*[#  12]
    |psi|^2 = 0.351
==== e(  14) =     1.67006 eV ==== 
     psi = 0.025*[#   6]+0.008*[#   7]+0.008*[#   8]+0.005*[#   5]+0.004*[#   9]
          +0.002*[#  10]+0.001*[#  11]+0.001*[#  12]
    |psi|^2 = 0.057
==== e(  15) =     1.82744 eV ==== 
[...]
     psi = 0.039*[#   6]+0.009*[#   5]+0.006*[#   9]+0.004*[#  10]+0.002*[#   7]
          +0.001*[#  11]
    |psi|^2 = 0.061
==== e(  22) =     3.68309 eV ==== 
     psi = 0.003*[#  10]+0.002*[#   7]+0.001*[#   6]
    |psi|^2 = 0.008
==== e(  23) =     3.80441 eV ==== 
     psi = 0.002*[#   8]+0.001*[#  12]
    |psi|^2 = 0.003
==== e(  24) =     4.23018 eV ==== 
     psi = 0.012*[#   7]+0.004*[#   6]+0.004*[#  11]+0.002*[#   5]+0.002*[#  10]
          
    |psi|^2 = 0.025
==== e(  25) =     4.27316 eV ==== 
 
    |psi|^2 = 0.001
==== e(  26) =     4.61916 eV ==== 
     psi = 0.010*[#   6]+0.010*[#   7]+0.003*[#   5]+0.003*[#  11]+0.001*[#   9]
          
    |psi|^2 = 0.030
==== e(  27) =     4.62433 eV ==== 
     psi = 0.014*[#   8]+0.003*[#  12]
    |psi|^2 = 0.018
==== e(  28) =     5.22115 eV ==== 
     psi = 0.021*[#   6]+0.009*[#   7]+0.007*[#  10]+0.005*[#   5]+0.004*[#   9]
          
    |psi|^2 = 0.048
==== e(  29) =     5.33322 eV ==== 
 
    |psi|^2 = 0.000
==== e(  30) =     5.39909 eV ==== 
     psi = 0.015*[#   6]+0.007*[#   7]+0.006*[#  10]+0.003*[#   9]+0.002*[#   5]
          
    |psi|^2 = 0.034
==== e(  31) =     5.59904 eV ==== 
     psi = 0.006*[#   8]+0.003*[#  12]
    |psi|^2 = 0.009
==== e(  32) =     5.61643 eV ==== 
     psi = 0.018*[#   6]+0.006*[#  10]+0.005*[#   5]+0.004*[#   9]+0.001*[#   7]
          
    |psi|^2 = 0.035
==== e(  33) =     5.88060 eV ==== 
     psi = 0.002*[#   8]
    |psi|^2 = 0.002

 k =  -0.2500000000 -0.2500000000  0.0000000000
==== e(   1) =   -80.23968 eV ==== 
     psi = 0.995*[#   1]+0.004*[#  10]
    |psi|^2 = 1.000
==== e(   2) =   -47.21478 eV ==== 
     psi = 0.984*[#   2]+0.011*[#   6]+0.003*[#  10]+0.002*[#   9]
    |psi|^2 = 1.000
==== e(   3) =   -47.18455 eV ==== 
     psi = 0.495*[#   3]+0.495*[#   4]+0.005*[#   7]+0.005*[#   8]
    |psi|^2 = 1.000
==== e(   4) =   -47.18455 eV ==== 
     psi = 0.495*[#   3]+0.495*[#   4]+0.005*[#   7]+0.005*[#   8]
    |psi|^2 = 1.000
==== e(   5) =   -14.20788 eV ==== 
     psi = 0.841*[#   9]+0.082*[#   6]+0.071*[#   5]+0.003*[#  10]
    |psi|^2 = 0.997
==== e(   6) =    -5.78745 eV ==== 
     psi = 0.630*[#  10]+0.314*[#   5]+0.044*[#   9]+0.002*[#   1]
    |psi|^2 = 0.991
==== e(   7) =    -4.14742 eV ==== 
     psi = 0.435*[#  11]+0.435*[#  12]+0.060*[#   7]+0.060*[#   8]
    |psi|^2 = 0.991
==== e(   8) =    -4.14634 eV ==== 
     psi = 0.435*[#  11]+0.435*[#  12]+0.060*[#   7]+0.060*[#   8]
    |psi|^2 = 0.991
==== e(   9) =    -3.44983 eV ==== 
     psi = 0.441*[#   5]+0.312*[#   6]+0.222*[#  10]
    |psi|^2 = 0.978
==== e(  10) =    -0.61874 eV ==== 
     psi = 0.285*[#   7]+0.285*[#   8]+0.042*[#  11]+0.042*[#  12]+0.006*[#   6]
          +0.003*[#   3]+0.003*[#   4]
    |psi|^2 = 0.667
==== e(  11) =    -0.53731 eV ==== 
     psi = 0.317*[#   7]+0.317*[#   8]+0.046*[#  11]+0.046*[#  12]+0.004*[#   3]
          +0.004*[#   4]
    |psi|^2 = 0.732
==== e(  12) =     0.78238 eV ==== 
     psi = 0.046*[#   6]+0.042*[#   5]+0.026*[#  10]+0.017*[#   7]+0.017*[#   8]
          +0.012*[#   9]+0.002*[#  11]+0.002*[#  12]+0.001*[#   2]
    |psi|^2 = 0.167
==== e(  13) =     0.89285 eV ==== 
     psi = 0.167*[#   6]+0.051*[#   5]+0.036*[#   7]+0.036*[#   8]+0.028*[#   9]
          +0.022*[#  10]+0.004*[#   2]+0.003*[#  11]+0.003*[#  12]
    |psi|^2 = 0.351
==== e(  14) =     1.67006 eV ==== 
     psi = 0.025*[#   6]+0.008*[#   7]+0.008*[#   8]+0.005*[#   5]+0.004*[#   9]
          +0.002*[#  10]+0.001*[#  11]+0.001*[#  12]
    |psi|^2 = 0.057
==== e(  15) =     1.82744 eV ==== 
     psi = 0.045*[#   7]+0.045*[#   8]+0.005*[#  11]+0.005*[#  12]
    |psi|^2 = 0.100
==== e(  16) =     2.07989 eV ==== 
     psi = 0.018*[#   7]+0.018*[#   8]+0.003*[#  11]+0.003*[#  12]+0.003*[#   6]
          
    |psi|^2 = 0.045
==== e(  17) =     2.29211 eV ==== 
     psi = 0.007*[#  10]+0.005*[#   5]+0.004*[#   6]+0.002*[#   9]
    |psi|^2 = 0.021
==== e(  18) =     2.47310 eV ==== 
     psi = 0.001*[#   7]+0.001*[#   8]+0.001*[#  11]+0.001*[#  12]
    |psi|^2 = 0.005
==== e(  19) =     2.82689 eV ==== 
     psi = 0.063*[#   6]+0.017*[#   5]+0.014*[#  10]+0.013*[#   9]+0.001*[#   2]
          
    |psi|^2 = 0.109
==== e(  20) =     3.05643 eV ==== 
     psi = 0.007*[#   7]+0.007*[#   8]+0.002*[#  11]+0.002*[#  12]
    |psi|^2 = 0.019
==== e(  21) =     3.53998 eV ==== 
     psi = 0.005*[#   7]+0.005*[#   8]+0.002*[#  11]+0.002*[#  12]+0.001*[#   6]
          
    |psi|^2 = 0.017
==== e(  22) =     3.76260 eV ==== 
     psi = 0.016*[#   6]+0.005*[#   7]+0.005*[#   8]+0.004*[#  10]+0.004*[#   5]
          +0.002*[#   9]
    |psi|^2 = 0.039
==== e(  23) =     4.06498 eV ==== 
     psi = 0.003*[#  10]+0.001*[#   7]+0.001*[#   8]
    |psi|^2 = 0.005
==== e(  24) =     4.16878 eV ==== 
     psi = 0.017*[#   7]+0.017*[#   8]+0.002*[#  11]+0.002*[#  12]
    |psi|^2 = 0.037
==== e(  25) =     4.44694 eV ==== 
     psi = 0.008*[#   7]+0.008*[#   8]+0.004*[#   6]+0.003*[#  11]+0.003*[#  12]
          
    |psi|^2 = 0.028
==== e(  26) =     4.59125 eV ==== 
     psi = 0.003*[#   7]+0.003*[#   8]+0.002*[#  11]+0.002*[#  12]
    |psi|^2 = 0.010
==== e(  27) =     4.85054 eV ==== 
     psi = 0.004*[#   6]+0.002*[#  10]
    |psi|^2 = 0.008
==== e(  28) =     5.03371 eV ==== 
     psi = 0.020*[#   6]+0.009*[#   5]+0.003*[#  10]+0.003*[#   9]
    |psi|^2 = 0.038
==== e(  29) =     5.08967 eV ==== 
     psi = 0.001*[#   7]+0.001*[#   8]
    |psi|^2 = 0.003
==== e(  30) =     5.41954 eV ==== 
     psi = 0.005*[#   7]+0.005*[#   8]
    |psi|^2 = 0.012
==== e(  31) =     5.50512 eV ==== 
     psi = 0.007*[#   6]+0.004*[#   7]+0.004*[#   8]+0.001*[#   5]
    |psi|^2 = 0.016
==== e(  32) =     5.72474 eV ==== 
 
    |psi|^2 = 0.002
==== e(  33) =     5.92411 eV ==== 
     psi = 0.002*[#   6]+0.001*[#   7]+0.001*[#   8]
    |psi|^2 = 0.006

 k =  -0.2500000000 -0.2500000000  0.1750000000
==== e(   1) =   -80.23968 eV ==== 
     psi = 0.995*[#   1]+0.004*[#  10]
    |psi|^2 = 1.000
==== e(   2) =   -47.21478 eV ==== 
     psi = 0.984*[#   2]+0.011*[#   6]+0.003*[#  10]+0.002*[#   9]
    |psi|^2 = 1.000
==== e(   3) =   -47.18455 eV ==== 
     psi = 0.495*[#   3]+0.495*[#   4]+0.005*[#   7]+0.005*[#   8]
    |psi|^2 = 1.000
==== e(   4) =   -47.18455 eV ==== 
     psi = 0.495*[#   3]+0.495*[#   4]+0.005*[#   7]+0.005*[#   8]
    |psi|^2 = 1.000
==== e(   5) =   -14.20788 eV ==== 
     psi = 0.841*[#   9]+0.082*[#   6]+0.071*[#   5]+0.003*[#  10]
    |psi|^2 = 0.997
==== e(   6) =    -5.78823 eV ==== 
     psi = 0.630*[#  10]+0.314*[#   5]+0.044*[#   9]+0.002*[#   1]
    |psi|^2 = 0.991
==== e(   7) =    -4.14731 eV ==== 
     psi = 0.435*[#  11]+0.435*[#  12]+0.060*[#   7]+0.060*[#   8]
    |psi|^2 = 0.991
==== e(   8) =    -4.14625 eV ==== 
     psi = 0.435*[#  11]+0.435*[#  12]+0.060*[#   7]+0.060*[#   8]
    |psi|^2 = 0.991
==== e(   9) =    -3.44453 eV ==== 
     psi = 0.441*[#   5]+0.312*[#   6]+0.223*[#  10]
    |psi|^2 = 0.979
==== e(  10) =    -0.62129 eV ==== 
     psi = 0.286*[#   7]+0.286*[#   8]+0.042*[#  11]+0.042*[#  12]+0.005*[#   6]
          +0.003*[#   3]+0.003*[#   4]
    |psi|^2 = 0.668
==== e(  11) =    -0.54088 eV ==== 
     psi = 0.316*[#   7]+0.316*[#   8]+0.045*[#  11]+0.045*[#  12]+0.004*[#   3]
          +0.004*[#   4]
    |psi|^2 = 0.731
==== e(  12) =     0.57258 eV ==== 
     psi = 0.121*[#   6]+0.061*[#   5]+0.033*[#  10]+0.026*[#   9]+0.006*[#   7]
          +0.006*[#   8]+0.003*[#   2]+0.001*[#  11]+0.001*[#  12]
    |psi|^2 = 0.258
==== e(  13) =     1.06240 eV ==== 
     psi = 0.073*[#   6]+0.056*[#   7]+0.056*[#   8]+0.021*[#   5]+0.011*[#   9]
          +0.009*[#  10]+0.006*[#  11]+0.006*[#  12]+0.002*[#   2]
    |psi|^2 = 0.242
==== e(  14) =     1.77253 eV ==== 
     psi = 0.037*[#   6]+0.009*[#   5]+0.006*[#   9]+0.003*[#  10]+0.001*[#   7]
          +0.001*[#   8]
    |psi|^2 = 0.059
==== e(  15) =     1.89266 eV ==== 
     psi = 0.043*[#   7]+0.043*[#   8]+0.005*[#  11]+0.005*[#  12]
    |psi|^2 = 0.098
==== e(  16) =     1.96217 eV ==== 
     psi = 0.019*[#   6]+0.011*[#   5]+0.010*[#  10]+0.008*[#   7]+0.008*[#   8]
          +0.004*[#   9]+0.002*[#  11]+0.002*[#  12]
    |psi|^2 = 0.062
==== e(  17) =     2.33424 eV ==== 
     psi = 0.007*[#   7]+0.007*[#   8]+0.002*[#  11]+0.002*[#  12]
    |psi|^2 = 0.019
==== e(  18) =     2.35015 eV ==== 
     psi = 0.008*[#   7]+0.008*[#   8]+0.007*[#   6]+0.004*[#   5]+0.003*[#  10]
          +0.002*[#   9]+0.002*[#  11]+0.002*[#  12]
    |psi|^2 = 0.036
==== e(  19) =     3.12935 eV ==== 
     psi = 0.027*[#   6]+0.009*[#   5]+0.008*[#  10]+0.005*[#   9]+0.002*[#   7]
          +0.002*[#   8]
    |psi|^2 = 0.056
==== e(  20) =     3.20801 eV ==== 
     psi = 0.007*[#   7]+0.007*[#   8]+0.002*[#  11]+0.002*[#  12]
    |psi|^2 = 0.017
==== e(  21) =     3.35514 eV ==== 
     psi = 0.027*[#   6]+0.007*[#   5]+0.005*[#  10]+0.005*[#   9]+0.003*[#   7]
          +0.003*[#   8]
    |psi|^2 = 0.051
==== e(  22) =     3.77947 eV ==== 
     psi = 0.006*[#   6]+0.003*[#   7]+0.003*[#   8]+0.003*[#   5]+0.001*[#  11]
          +0.001*[#  12]
    |psi|^2 = 0.019
==== e(  23) =     4.06806 eV ==== 
     psi = 0.008*[#   7]+0.008*[#   8]+0.002*[#  11]+0.002*[#  12]
    |psi|^2 = 0.021
==== e(  24) =     4.16032 eV ==== 
     psi = 0.010*[#   7]+0.010*[#   8]+0.001*[#  11]+0.001*[#  12]
    |psi|^2 = 0.023
==== e(  25) =     4.28230 eV ==== 
     psi = 0.004*[#   6]+0.001*[#   5]+0.001*[#   7]+0.001*[#   8]
    |psi|^2 = 0.009
==== e(  26) =     4.57770 eV ==== 
     psi = 0.003*[#   7]+0.003*[#   8]+0.001*[#  11]+0.001*[#  12]
    |psi|^2 = 0.009
==== e(  27) =     4.81819 eV ==== 
     psi = 0.002*[#   7]+0.002*[#   8]+0.001*[#  11]+0.001*[#  12]
    |psi|^2 = 0.005
==== e(  28) =     4.85973 eV ==== 
     psi = 0.013*[#   6]+0.004*[#   5]+0.004*[#  10]+0.002*[#   7]+0.002*[#   8]
          +0.002*[#   9]+0.001*[#  11]+0.001*[#  12]
    |psi|^2 = 0.030
==== e(  29) =     5.02825 eV ==== 
     psi = 0.038*[#   6]+0.010*[#  10]+0.008*[#   5]+0.007*[#   9]+0.003*[#   7]
          +0.003*[#   8]
    |psi|^2 = 0.071
==== e(  30) =     5.35091 eV ==== 
     psi = 0.014*[#   6]+0.004*[#  10]+0.003*[#   9]+0.002*[#   5]
    |psi|^2 = 0.024
==== e(  31) =     5.49943 eV ==== 
     psi = 0.003*[#   7]+0.003*[#   8]
    |psi|^2 = 0.007
==== e(  32) =     5.60677 eV ==== 
     psi = 0.003*[#   6]+0.002*[#   7]+0.002*[#   8]+0.001*[#  10]
    |psi|^2 = 0.011
==== e(  33) =     5.96174 eV ==== 
     psi = 0.003*[#   7]+0.003*[#   8]
    |psi|^2 = 0.008

 k =  -0.2500000000 -0.2500000000 -0.3500000000
==== e(   1) =   -80.23968 eV ==== 
     psi = 0.995*[#   1]+0.004*[#  10]
    |psi|^2 = 1.000
==== e(   2) =   -47.21478 eV ==== 
     psi = 0.984*[#   2]+0.011*[#   6]+0.003*[#  10]+0.002*[#   9]
    |psi|^2 = 1.000
==== e(   3) =   -47.18455 eV ==== 
     psi = 0.495*[#   3]+0.495*[#   4]+0.005*[#   7]+0.005*[#   8]
    |psi|^2 = 1.000
==== e(   4) =   -47.18455 eV ==== 
     psi = 0.495*[#   3]+0.495*[#   4]+0.005*[#   7]+0.005*[#   8]
    |psi|^2 = 1.000
==== e(   5) =   -14.20788 eV ==== 
     psi = 0.841*[#   9]+0.082*[#   6]+0.071*[#   5]+0.003*[#  10]
    |psi|^2 = 0.997
==== e(   6) =    -5.78902 eV ==== 
     psi = 0.630*[#  10]+0.314*[#   5]+0.044*[#   9]+0.002*[#   1]
    |psi|^2 = 0.991
==== e(   7) =    -4.14720 eV ==== 
     psi = 0.435*[#  11]+0.435*[#  12]+0.060*[#   7]+0.060*[#   8]
    |psi|^2 = 0.991
==== e(   8) =    -4.14616 eV ==== 
     psi = 0.436*[#  11]+0.436*[#  12]+0.060*[#   7]+0.060*[#   8]
    |psi|^2 = 0.991
==== e(   9) =    -3.43921 eV ==== 
     psi = 0.440*[#   5]+0.313*[#   6]+0.223*[#  10]
    |psi|^2 = 0.980
==== e(  10) =    -0.62386 eV ==== 
     psi = 0.287*[#   7]+0.287*[#   8]+0.042*[#  11]+0.042*[#  12]+0.004*[#   6]
          +0.003*[#   3]+0.003*[#   4]
    |psi|^2 = 0.668
==== e(  11) =    -0.54442 eV ==== 
     psi = 0.316*[#   7]+0.316*[#   8]+0.045*[#  11]+0.045*[#  12]+0.004*[#   3]
          +0.004*[#   4]
    |psi|^2 = 0.730
==== e(  12) =     0.46227 eV ==== 
     psi = 0.132*[#   6]+0.065*[#   5]+0.035*[#  10]+0.029*[#   9]+0.003*[#   2]
          +0.002*[#   7]+0.002*[#   8]
    |psi|^2 = 0.270
==== e(  13) =     1.15039 eV ==== 
     psi = 0.067*[#   7]+0.067*[#   8]+0.049*[#   6]+0.008*[#   5]+0.007*[#  11]
          +0.007*[#  12]+0.006*[#   9]+0.002*[#  10]
    |psi|^2 = 0.216
==== e(  14) =     1.80255 eV ==== 
     psi = 0.058*[#   6]+0.024*[#   5]+0.016*[#  10]+0.011*[#   9]+0.002*[#   7]
          +0.002*[#   8]+0.001*[#   2]
    |psi|^2 = 0.116
==== e(  15) =     1.86217 eV ==== 
     psi = 0.005*[#   6]
    |psi|^2 = 0.007
==== e(  16) =     2.02093 eV ==== 
     psi = 0.053*[#   7]+0.053*[#   8]+0.007*[#  11]+0.007*[#  12]
    |psi|^2 = 0.121
==== e(  17) =     2.15180 eV ==== 
 
    |psi|^2 = 0.003
==== e(  18) =     2.62047 eV ==== 
     psi = 0.015*[#   6]+0.010*[#   5]+0.006*[#   7]+0.006*[#   8]+0.005*[#  10]
          +0.002*[#   9]+0.001*[#  11]+0.001*[#  12]
    |psi|^2 = 0.049
==== e(  19) =     3.15362 eV ==== 
     psi = 0.009*[#   7]+0.009*[#   8]+0.002*[#  11]+0.002*[#  12]
    |psi|^2 = 0.023
==== e(  20) =     3.37296 eV ==== 
     psi = 0.021*[#   6]+0.010*[#   5]+0.005*[#   9]+0.005*[#  10]
    |psi|^2 = 0.042
==== e(  21) =     3.38250 eV ==== 
     psi = 0.010*[#   7]+0.010*[#   8]+0.003*[#  11]+0.003*[#  12]
    |psi|^2 = 0.027
==== e(  22) =     3.72892 eV ==== 
     psi = 0.011*[#   6]+0.003*[#   7]+0.003*[#   8]+0.001*[#   9]
    |psi|^2 = 0.018
==== e(  23) =     3.83184 eV ==== 
     psi = 0.017*[#   6]+0.006*[#   5]+0.003*[#  10]+0.002*[#   9]
    |psi|^2 = 0.030
==== e(  24) =     4.09106 eV ==== 
 
    |psi|^2 = 0.002
==== e(  25) =     4.42820 eV ==== 
 
    |psi|^2 = 0.000
==== e(  26) =     4.47666 eV ==== 
     psi = 0.036*[#   6]+0.012*[#   7]+0.012*[#   8]+0.011*[#  10]+0.008*[#   5]
          +0.008*[#   9]+0.002*[#  11]+0.002*[#  12]
    |psi|^2 = 0.093
==== e(  27) =     4.62931 eV ==== 
     psi = 0.017*[#   6]+0.005*[#   5]+0.003*[#   9]+0.002*[#  10]
    |psi|^2 = 0.028
==== e(  28) =     4.81785 eV ==== 
     psi = 0.005*[#   7]+0.005*[#   8]+0.001*[#  11]+0.001*[#  12]
    |psi|^2 = 0.013
==== e(  29) =     5.10703 eV ==== 
     psi = 0.011*[#   6]+0.003*[#  10]+0.003*[#   9]+0.003*[#   5]+0.001*[#   7]
          +0.001*[#   8]
    |psi|^2 = 0.024
==== e(  30) =     5.31077 eV ==== 
     psi = 0.002*[#  10]
    |psi|^2 = 0.003
==== e(  31) =     5.55587 eV ==== 
     psi = 0.021*[#   6]+0.006*[#  10]+0.004*[#   9]+0.003*[#   5]
    |psi|^2 = 0.034
==== e(  32) =     5.66180 eV ==== 
     psi = 0.004*[#   7]+0.004*[#   8]
    |psi|^2 = 0.008
==== e(  33) =     5.84604 eV ==== 
     psi = 0.008*[#   7]+0.008*[#   8]+0.003*[#  11]+0.003*[#  12]
    |psi|^2 = 0.021

 k =  -0.2500000000 -0.2500000000 -0.1750000000
==== e(   1) =   -80.23968 eV ==== 
     psi = 0.995*[#   1]+0.004*[#  10]
    |psi|^2 = 1.000
==== e(   2) =   -47.21478 eV ==== 
     psi = 0.984*[#   2]+0.011*[#   6]+0.003*[#  10]+0.002*[#   9]
    |psi|^2 = 1.000
==== e(   3) =   -47.18455 eV ==== 
     psi = 0.495*[#   3]+0.495*[#   4]+0.005*[#   7]+0.005*[#   8]
    |psi|^2 = 1.000
==== e(   4) =   -47.18455 eV ==== 
     psi = 0.495*[#   3]+0.495*[#   4]+0.005*[#   7]+0.005*[#   8]
    |psi|^2 = 1.000
==== e(   5) =   -14.20788 eV ==== 
     psi = 0.841*[#   9]+0.082*[#   6]+0.071*[#   5]+0.003*[#  10]
    |psi|^2 = 0.997
==== e(   6) =    -5.78823 eV ==== 
     psi = 0.630*[#  10]+0.314*[#   5]+0.044*[#   9]+0.002*[#   1]
    |psi|^2 = 0.991
==== e(   7) =    -4.14731 eV ==== 
     psi = 0.435*[#  11]+0.435*[#  12]+0.060*[#   7]+0.060*[#   8]
    |psi|^2 = 0.991
==== e(   8) =    -4.14625 eV ==== 
     psi = 0.435*[#  11]+0.435*[#  12]+0.060*[#   7]+0.060*[#   8]
    |psi|^2 = 0.991
==== e(   9) =    -3.44453 eV ==== 
     psi = 0.441*[#   5]+0.312*[#   6]+0.223*[#  10]
    |psi|^2 = 0.979
==== e(  10) =    -0.62129 eV ==== 
     psi = 0.286*[#   7]+0.286*[#   8]+0.042*[#  11]+0.042*[#  12]+0.005*[#   6]
          +0.003*[#   3]+0.003*[#   4]
    |psi|^2 = 0.668
==== e(  11) =    -0.54088 eV ==== 
     psi = 0.316*[#   7]+0.316*[#   8]+0.045*[#  11]+0.045*[#  12]+0.004*[#   3]
          +0.004*[#   4]
    |psi|^2 = 0.731
==== e(  12) =     0.57258 eV ==== 
     psi = 0.121*[#   6]+0.061*[#   5]+0.033*[#  10]+0.026*[#   9]+0.006*[#   7]
          +0.006*[#   8]+0.003*[#   2]+0.001*[#  11]+0.001*[#  12]
    |psi|^2 = 0.258
==== e(  13) =     1.06240 eV ==== 
     psi = 0.073*[#   6]+0.056*[#   7]+0.056*[#   8]+0.021*[#   5]+0.011*[#   9]
          +0.009*[#  10]+0.006*[#  11]+0.006*[#  12]+0.002*[#   2]
    |psi|^2 = 0.242
==== e(  14) =     1.77253 eV ==== 
     psi = 0.037*[#   6]+0.009*[#   5]+0.006*[#   9]+0.003*[#  10]+0.001*[#   7]
          +0.001*[#   8]
    |psi|^2 = 0.059
==== e(  15) =     1.89266 eV ==== 
     psi = 0.043*[#   7]+0.043*[#   8]+0.005*[#  11]+0.005*[#  12]
    |psi|^2 = 0.098
==== e(  16) =     1.96217 eV ==== 
     psi = 0.019*[#   6]+0.011*[#   5]+0.010*[#  10]+0.008*[#   7]+0.008*[#   8]
          +0.004*[#   9]+0.002*[#  11]+0.002*[#  12]
    |psi|^2 = 0.062
==== e(  17) =     2.33424 eV ==== 
     psi = 0.007*[#   7]+0.007*[#   8]+0.002*[#  11]+0.002*[#  12]
    |psi|^2 = 0.019
==== e(  18) =     2.35015 eV ==== 
     psi = 0.008*[#   7]+0.008*[#   8]+0.007*[#   6]+0.004*[#   5]+0.003*[#  10]
          +0.002*[#   9]+0.002*[#  11]+0.002*[#  12]
    |psi|^2 = 0.036
==== e(  19) =     3.12935 eV ==== 
     psi = 0.027*[#   6]+0.009*[#   5]+0.008*[#  10]+0.005*[#   9]+0.002*[#   7]
          +0.002*[#   8]
    |psi|^2 = 0.056
==== e(  20) =     3.20801 eV ==== 
     psi = 0.007*[#   7]+0.007*[#   8]+0.002*[#  11]+0.002*[#  12]
    |psi|^2 = 0.017
==== e(  21) =     3.35514 eV ==== 
     psi = 0.027*[#   6]+0.007*[#   5]+0.005*[#  10]+0.005*[#   9]+0.003*[#   7]
          +0.003*[#   8]
    |psi|^2 = 0.051
==== e(  22) =     3.77947 eV ==== 
     psi = 0.006*[#   6]+0.003*[#   7]+0.003*[#   8]+0.003*[#   5]+0.001*[#  11]
          +0.001*[#  12]
    |psi|^2 = 0.019
==== e(  23) =     4.06806 eV ==== 
     psi = 0.008*[#   7]+0.008*[#   8]+0.002*[#  11]+0.002*[#  12]
    |psi|^2 = 0.021
==== e(  24) =     4.16032 eV ==== 
     psi = 0.010*[#   7]+0.010*[#   8]+0.001*[#  11]+0.001*[#  12]
    |psi|^2 = 0.023
==== e(  25) =     4.28230 eV ==== 
     psi = 0.004*[#   6]+0.001*[#   5]+0.001*[#   7]+0.001*[#   8]
    |psi|^2 = 0.009
==== e(  26) =     4.57770 eV ==== 
     psi = 0.003*[#   7]+0.003*[#   8]+0.001*[#  11]+0.001*[#  12]
    |psi|^2 = 0.009
==== e(  27) =     4.81819 eV ==== 
     psi = 0.002*[#   7]+0.002*[#   8]+0.001*[#  11]+0.001*[#  12]
    |psi|^2 = 0.005
==== e(  28) =     4.85973 eV ==== 
     psi = 0.013*[#   6]+0.004*[#   5]+0.004*[#  10]+0.002*[#   7]+0.002*[#   8]
          +0.002*[#   9]+0.001*[#  11]+0.001*[#  12]
    |psi|^2 = 0.030
==== e(  29) =     5.02825 eV ==== 
     psi = 0.038*[#   6]+0.010*[#  10]+0.008*[#   5]+0.007*[#   9]+0.003*[#   7]
          +0.003*[#   8]
    |psi|^2 = 0.071
==== e(  30) =     5.35091 eV ==== 
     psi = 0.014*[#   6]+0.004*[#  10]+0.003*[#   9]+0.002*[#   5]
    |psi|^2 = 0.024
==== e(  31) =     5.49943 eV ==== 
     psi = 0.003*[#   7]+0.003*[#   8]
    |psi|^2 = 0.007
==== e(  32) =     5.60677 eV ==== 
     psi = 0.003*[#   6]+0.002*[#   7]+0.002*[#   8]+0.001*[#  10]
    |psi|^2 = 0.011
==== e(  33) =     5.96174 eV ==== 
     psi = 0.003*[#   7]+0.003*[#   8]
    |psi|^2 = 0.008

Lowdin Charges: 

     Atom #   1: total charge =   9.4019, s =  2.7647, 
     Atom #   1: total charge =   9.4019, p =  6.6372, pz=  2.1570, px=  2.2401, py=  2.2401, 
     Atom #   2: total charge =   6.5390, s =  1.7758, 
     Atom #   2: total charge =   6.5390, p =  4.7632, pz=  1.2801, px=  1.7415, py=  1.7415, 
     Spilling Parameter:   0.0037
 
     PROJWFC      :      6.28s CPU      7.17s WALL

 
   This run was terminated on:  21:31:31  16Apr2020            

=------------------------------------------------------------------------------=
   JOB DONE.
=------------------------------------------------------------------------------=
